# LAMMPS data file written by OVITO Basic 3.7.5
4850 atoms
4 atom types
0.0 52.686 xlo xhi
0.0 52.686 ylo yhi
0.0 52.686 zlo zhi
0 0 0 xy xz yz

Masses

1 63.546  # Cu
2 1.00794  # H
3 12.0107  # C
4 15.9994  # O

Atoms  # charge

1 1 0.0 7.5156579 7.5156579 0.0
2 1 0.0 7.5156579 20.6871579 13.1715
3 1 0.0 20.6871579 7.5156579 13.1715
4 1 0.0 20.6871579 20.6871579 0.0
5 1 0.0 18.8273421 18.8273421 0.0
6 1 0.0 18.8273421 5.6558421 13.1715
7 1 0.0 5.6558421 18.8273421 13.1715
8 1 0.0 5.6558421 5.6558421 0.0
9 1 0.0 18.8273421 7.5156579 0.0
10 1 0.0 18.8273421 20.6871579 13.1715
11 1 0.0 5.6558421 7.5156579 13.1715
12 1 0.0 7.5156579 18.8273421 0.0
13 1 0.0 7.5156579 5.6558421 13.1715
14 1 0.0 20.6871579 18.8273421 13.1715
15 1 0.0 20.6871579 5.6558421 0.0
16 1 0.0 0.0 7.5156579 7.5156579
17 1 0.0 0.0 20.6871579 20.6871579
18 1 0.0 13.1715 7.5156579 20.6871579
19 1 0.0 13.1715 20.6871579 7.5156579
20 1 0.0 0.0 18.8273421 18.8273421
21 1 0.0 0.0 5.6558421 5.6558421
22 1 0.0 13.1715 18.8273421 5.6558421
23 1 0.0 13.1715 5.6558421 18.8273421
24 1 0.0 0.0 18.8273421 7.5156579
25 1 0.0 0.0 5.6558421 20.6871579
26 1 0.0 13.1715 18.8273421 20.6871579
27 1 0.0 13.1715 5.6558421 7.5156579
28 1 0.0 0.0 7.5156579 18.8273421
29 1 0.0 0.0 20.6871579 5.6558421
30 1 0.0 13.1715 7.5156579 5.6558421
31 1 0.0 13.1715 20.6871579 18.8273421
32 1 0.0 7.5156579 0.0 7.5156579
33 1 0.0 7.5156579 13.1715 20.6871579
34 1 0.0 20.6871579 0.0 20.6871579
35 1 0.0 20.6871579 13.1715 7.5156579
36 1 0.0 18.8273421 0.0 18.8273421
37 1 0.0 18.8273421 13.1715 5.6558421
38 1 0.0 5.6558421 0.0 5.6558421
39 1 0.0 5.6558421 13.1715 18.8273421
40 1 0.0 7.5156579 13.1715 5.6558421
41 1 0.0 20.6871579 0.0 5.6558421
42 1 0.0 20.6871579 13.1715 18.8273421
43 1 0.0 18.8273421 0.0 7.5156579
44 1 0.0 18.8273421 13.1715 20.6871579
45 1 0.0 5.6558421 13.1715 7.5156579
46 1 0.0 33.8586579 7.5156579 0.0
47 1 0.0 33.8586579 20.6871579 13.1715
48 1 0.0 47.0301579 7.5156579 13.1715
49 1 0.0 47.0301579 20.6871579 0.0
50 1 0.0 45.1703421 18.8273421 0.0
51 1 0.0 45.1703421 5.6558421 13.1715
52 1 0.0 31.9988421 18.8273421 13.1715
53 1 0.0 31.9988421 5.6558421 0.0
54 1 0.0 45.1703421 7.5156579 0.0
55 1 0.0 45.1703421 20.6871579 13.1715
56 1 0.0 31.9988421 7.5156579 13.1715
57 1 0.0 31.9988421 20.6871579 0.0
58 1 0.0 33.8586579 18.8273421 0.0
59 1 0.0 33.8586579 5.6558421 13.1715
60 1 0.0 47.0301579 18.8273421 13.1715
61 1 0.0 47.0301579 5.6558421 0.0
62 1 0.0 26.343 7.5156579 7.5156579
63 1 0.0 26.343 20.6871579 20.6871579
64 1 0.0 39.5145 7.5156579 20.6871579
65 1 0.0 39.5145 20.6871579 7.5156579
66 1 0.0 26.343 18.8273421 18.8273421
67 1 0.0 26.343 5.6558421 5.6558421
68 1 0.0 39.5145 18.8273421 5.6558421
69 1 0.0 39.5145 5.6558421 18.8273421
70 1 0.0 26.343 18.8273421 7.5156579
71 1 0.0 26.343 5.6558421 20.6871579
72 1 0.0 39.5145 5.6558421 7.5156579
73 1 0.0 26.343 7.5156579 18.8273421
74 1 0.0 26.343 20.6871579 5.6558421
75 1 0.0 39.5145 7.5156579 5.6558421
76 1 0.0 33.8586579 0.0 7.5156579
77 1 0.0 33.8586579 13.1715 20.6871579
78 1 0.0 47.0301579 0.0 20.6871579
79 1 0.0 47.0301579 13.1715 7.5156579
80 1 0.0 45.1703421 0.0 18.8273421
81 1 0.0 45.1703421 13.1715 5.6558421
82 1 0.0 31.9988421 0.0 5.6558421
83 1 0.0 31.9988421 13.1715 18.8273421
84 1 0.0 33.8586579 0.0 18.8273421
85 1 0.0 33.8586579 13.1715 5.6558421
86 1 0.0 47.0301579 0.0 5.6558421
87 1 0.0 47.0301579 13.1715 18.8273421
88 1 0.0 45.1703421 0.0 7.5156579
89 1 0.0 45.1703421 13.1715 20.6871579
90 1 0.0 31.9988421 0.0 20.6871579
91 1 0.0 31.9988421 13.1715 7.5156579
92 1 0.0 7.5156579 33.8586579 0.0
93 1 0.0 7.5156579 47.0301579 13.1715
94 1 0.0 20.6871579 33.8586579 13.1715
95 1 0.0 20.6871579 47.0301579 0.0
96 1 0.0 18.8273421 45.1703421 0.0
97 1 0.0 18.8273421 31.9988421 13.1715
98 1 0.0 5.6558421 45.1703421 13.1715
99 1 0.0 5.6558421 31.9988421 0.0
100 1 0.0 18.8273421 33.8586579 0.0
101 1 0.0 18.8273421 47.0301579 13.1715
102 1 0.0 5.6558421 33.8586579 13.1715
103 1 0.0 5.6558421 47.0301579 0.0
104 1 0.0 7.5156579 45.1703421 0.0
105 1 0.0 7.5156579 31.9988421 13.1715
106 1 0.0 20.6871579 45.1703421 13.1715
107 1 0.0 20.6871579 31.9988421 0.0
108 1 0.0 0.0 33.8586579 7.5156579
109 1 0.0 0.0 47.0301579 20.6871579
110 1 0.0 13.1715 33.8586579 20.6871579
111 1 0.0 13.1715 47.0301579 7.5156579
112 1 0.0 0.0 45.1703421 18.8273421
113 1 0.0 0.0 31.9988421 5.6558421
114 1 0.0 13.1715 45.1703421 5.6558421
115 1 0.0 13.1715 31.9988421 18.8273421
116 1 0.0 0.0 45.1703421 7.5156579
117 1 0.0 0.0 31.9988421 20.6871579
118 1 0.0 13.1715 45.1703421 20.6871579
119 1 0.0 13.1715 31.9988421 7.5156579
120 1 0.0 0.0 33.8586579 18.8273421
121 1 0.0 0.0 47.0301579 5.6558421
122 1 0.0 13.1715 33.8586579 5.6558421
123 1 0.0 13.1715 47.0301579 18.8273421
124 1 0.0 7.5156579 26.343 7.5156579
125 1 0.0 7.5156579 39.5145 20.6871579
126 1 0.0 20.6871579 26.343 20.6871579
127 1 0.0 20.6871579 39.5145 7.5156579
128 1 0.0 18.8273421 26.343 18.8273421
129 1 0.0 18.8273421 39.5145 5.6558421
130 1 0.0 5.6558421 26.343 5.6558421
131 1 0.0 5.6558421 39.5145 18.8273421
132 1 0.0 7.5156579 26.343 18.8273421
133 1 0.0 7.5156579 39.5145 5.6558421
134 1 0.0 20.6871579 39.5145 18.8273421
135 1 0.0 18.8273421 39.5145 20.6871579
136 1 0.0 5.6558421 26.343 20.6871579
137 1 0.0 5.6558421 39.5145 7.5156579
138 1 0.0 33.8586579 33.8586579 0.0
139 1 0.0 33.8586579 47.0301579 13.1715
140 1 0.0 47.0301579 33.8586579 13.1715
141 1 0.0 47.0301579 47.0301579 0.0
142 1 0.0 45.1703421 45.1703421 0.0
143 1 0.0 45.1703421 31.9988421 13.1715
144 1 0.0 31.9988421 45.1703421 13.1715
145 1 0.0 31.9988421 31.9988421 0.0
146 1 0.0 45.1703421 33.8586579 0.0
147 1 0.0 45.1703421 47.0301579 13.1715
148 1 0.0 31.9988421 33.8586579 13.1715
149 1 0.0 31.9988421 47.0301579 0.0
150 1 0.0 33.8586579 45.1703421 0.0
151 1 0.0 33.8586579 31.9988421 13.1715
152 1 0.0 47.0301579 45.1703421 13.1715
153 1 0.0 47.0301579 31.9988421 0.0
154 1 0.0 26.343 33.8586579 7.5156579
155 1 0.0 26.343 47.0301579 20.6871579
156 1 0.0 39.5145 33.8586579 20.6871579
157 1 0.0 39.5145 47.0301579 7.5156579
158 1 0.0 26.343 45.1703421 18.8273421
159 1 0.0 26.343 31.9988421 5.6558421
160 1 0.0 39.5145 45.1703421 5.6558421
161 1 0.0 39.5145 31.9988421 18.8273421
162 1 0.0 26.343 45.1703421 7.5156579
163 1 0.0 26.343 31.9988421 20.6871579
164 1 0.0 39.5145 45.1703421 20.6871579
165 1 0.0 39.5145 31.9988421 7.5156579
166 1 0.0 26.343 33.8586579 18.8273421
167 1 0.0 26.343 47.0301579 5.6558421
168 1 0.0 39.5145 33.8586579 5.6558421
169 1 0.0 39.5145 47.0301579 18.8273421
170 1 0.0 33.8586579 26.343 7.5156579
171 1 0.0 33.8586579 39.5145 20.6871579
172 1 0.0 47.0301579 26.343 20.6871579
173 1 0.0 45.1703421 26.343 18.8273421
174 1 0.0 31.9988421 26.343 5.6558421
175 1 0.0 31.9988421 39.5145 18.8273421
176 1 0.0 33.8586579 26.343 18.8273421
177 1 0.0 33.8586579 39.5145 5.6558421
178 1 0.0 47.0301579 26.343 5.6558421
179 1 0.0 47.0301579 39.5145 18.8273421
180 1 0.0 45.1703421 26.343 7.5156579
181 1 0.0 45.1703421 39.5145 20.6871579
182 1 0.0 31.9988421 26.343 20.6871579
183 1 0.0 31.9988421 39.5145 7.5156579
184 1 0.0 7.5156579 7.5156579 26.343
185 1 0.0 7.5156579 20.6871579 39.5145
186 1 0.0 20.6871579 7.5156579 39.5145
187 1 0.0 20.6871579 20.6871579 26.343
188 1 0.0 18.8273421 18.8273421 26.343
189 1 0.0 18.8273421 5.6558421 39.5145
190 1 0.0 5.6558421 18.8273421 39.5145
191 1 0.0 5.6558421 5.6558421 26.343
192 1 0.0 18.8273421 7.5156579 26.343
193 1 0.0 18.8273421 20.6871579 39.5145
194 1 0.0 5.6558421 7.5156579 39.5145
195 1 0.0 5.6558421 20.6871579 26.343
196 1 0.0 7.5156579 18.8273421 26.343
197 1 0.0 7.5156579 5.6558421 39.5145
198 1 0.0 20.6871579 18.8273421 39.5145
199 1 0.0 20.6871579 5.6558421 26.343
200 1 0.0 0.0 7.5156579 33.8586579
201 1 0.0 0.0 20.6871579 47.0301579
202 1 0.0 13.1715 7.5156579 47.0301579
203 1 0.0 0.0 18.8273421 45.1703421
204 1 0.0 0.0 5.6558421 31.9988421
205 1 0.0 13.1715 5.6558421 45.1703421
206 1 0.0 0.0 18.8273421 33.8586579
207 1 0.0 0.0 5.6558421 47.0301579
208 1 0.0 13.1715 18.8273421 47.0301579
209 1 0.0 0.0 7.5156579 45.1703421
210 1 0.0 0.0 20.6871579 31.9988421
211 1 0.0 13.1715 20.6871579 45.1703421
212 1 0.0 7.5156579 0.0 33.8586579
213 1 0.0 7.5156579 13.1715 47.0301579
214 1 0.0 20.6871579 0.0 47.0301579
215 1 0.0 20.6871579 13.1715 33.8586579
216 1 0.0 18.8273421 0.0 45.1703421
217 1 0.0 18.8273421 13.1715 31.9988421
218 1 0.0 5.6558421 0.0 31.9988421
219 1 0.0 5.6558421 13.1715 45.1703421
220 1 0.0 7.5156579 0.0 45.1703421
221 1 0.0 7.5156579 13.1715 31.9988421
222 1 0.0 20.6871579 0.0 31.9988421
223 1 0.0 20.6871579 13.1715 45.1703421
224 1 0.0 18.8273421 0.0 33.8586579
225 1 0.0 18.8273421 13.1715 47.0301579
226 1 0.0 5.6558421 0.0 47.0301579
227 1 0.0 5.6558421 13.1715 33.8586579
228 1 0.0 33.8586579 7.5156579 26.343
229 1 0.0 33.8586579 20.6871579 39.5145
230 1 0.0 47.0301579 7.5156579 39.5145
231 1 0.0 47.0301579 20.6871579 26.343
232 1 0.0 45.1703421 18.8273421 26.343
233 1 0.0 45.1703421 5.6558421 39.5145
234 1 0.0 31.9988421 18.8273421 39.5145
235 1 0.0 31.9988421 5.6558421 26.343
236 1 0.0 45.1703421 7.5156579 26.343
237 1 0.0 45.1703421 20.6871579 39.5145
238 1 0.0 31.9988421 7.5156579 39.5145
239 1 0.0 31.9988421 20.6871579 26.343
240 1 0.0 33.8586579 18.8273421 26.343
241 1 0.0 33.8586579 5.6558421 39.5145
242 1 0.0 47.0301579 18.8273421 39.5145
243 1 0.0 47.0301579 5.6558421 26.343
244 1 0.0 26.343 7.5156579 33.8586579
245 1 0.0 26.343 20.6871579 47.0301579
246 1 0.0 39.5145 7.5156579 47.0301579
247 1 0.0 39.5145 20.6871579 33.8586579
248 1 0.0 26.343 18.8273421 45.1703421
249 1 0.0 26.343 5.6558421 31.9988421
250 1 0.0 39.5145 18.8273421 31.9988421
251 1 0.0 39.5145 5.6558421 45.1703421
252 1 0.0 26.343 18.8273421 33.8586579
253 1 0.0 26.343 5.6558421 47.0301579
254 1 0.0 39.5145 18.8273421 47.0301579
255 1 0.0 39.5145 5.6558421 33.8586579
256 1 0.0 26.343 7.5156579 45.1703421
257 1 0.0 26.343 20.6871579 31.9988421
258 1 0.0 39.5145 7.5156579 31.9988421
259 1 0.0 39.5145 20.6871579 45.1703421
260 1 0.0 33.8586579 0.0 33.8586579
261 1 0.0 33.8586579 13.1715 47.0301579
262 1 0.0 47.0301579 0.0 47.0301579
263 1 0.0 47.0301579 13.1715 33.8586579
264 1 0.0 45.1703421 0.0 45.1703421
265 1 0.0 45.1703421 13.1715 31.9988421
266 1 0.0 31.9988421 0.0 31.9988421
267 1 0.0 31.9988421 13.1715 45.1703421
268 1 0.0 33.8586579 13.1715 31.9988421
269 1 0.0 47.0301579 0.0 31.9988421
270 1 0.0 47.0301579 13.1715 45.1703421
271 1 0.0 45.1703421 0.0 33.8586579
272 1 0.0 45.1703421 13.1715 47.0301579
273 1 0.0 31.9988421 13.1715 33.8586579
274 1 0.0 7.5156579 33.8586579 26.343
275 1 0.0 7.5156579 47.0301579 39.5145
276 1 0.0 20.6871579 33.8586579 39.5145
277 1 0.0 20.6871579 47.0301579 26.343
278 1 0.0 18.8273421 45.1703421 26.343
279 1 0.0 18.8273421 31.9988421 39.5145
280 1 0.0 5.6558421 45.1703421 39.5145
281 1 0.0 5.6558421 31.9988421 26.343
282 1 0.0 18.8273421 33.8586579 26.343
283 1 0.0 18.8273421 47.0301579 39.5145
284 1 0.0 5.6558421 33.8586579 39.5145
285 1 0.0 5.6558421 47.0301579 26.343
286 1 0.0 7.5156579 45.1703421 26.343
287 1 0.0 7.5156579 31.9988421 39.5145
288 1 0.0 20.6871579 45.1703421 39.5145
289 1 0.0 20.6871579 31.9988421 26.343
290 1 0.0 0.0 33.8586579 33.8586579
291 1 0.0 0.0 47.0301579 47.0301579
292 1 0.0 13.1715 33.8586579 47.0301579
293 1 0.0 13.1715 47.0301579 33.8586579
294 1 0.0 0.0 45.1703421 45.1703421
295 1 0.0 0.0 31.9988421 31.9988421
296 1 0.0 13.1715 45.1703421 31.9988421
297 1 0.0 13.1715 31.9988421 45.1703421
298 1 0.0 0.0 45.1703421 33.8586579
299 1 0.0 0.0 31.9988421 47.0301579
300 1 0.0 13.1715 45.1703421 47.0301579
301 1 0.0 13.1715 31.9988421 33.8586579
302 1 0.0 0.0 33.8586579 45.1703421
303 1 0.0 0.0 47.0301579 31.9988421
304 1 0.0 13.1715 33.8586579 31.9988421
305 1 0.0 13.1715 47.0301579 45.1703421
306 1 0.0 7.5156579 39.5145 47.0301579
307 1 0.0 20.6871579 26.343 47.0301579
308 1 0.0 20.6871579 39.5145 33.8586579
309 1 0.0 18.8273421 26.343 45.1703421
310 1 0.0 18.8273421 39.5145 31.9988421
311 1 0.0 5.6558421 39.5145 45.1703421
312 1 0.0 7.5156579 26.343 45.1703421
313 1 0.0 20.6871579 26.343 31.9988421
314 1 0.0 18.8273421 26.343 33.8586579
315 1 0.0 5.6558421 26.343 47.0301579
316 1 0.0 33.8586579 33.8586579 26.343
317 1 0.0 33.8586579 47.0301579 39.5145
318 1 0.0 47.0301579 33.8586579 39.5145
319 1 0.0 47.0301579 47.0301579 26.343
320 1 0.0 45.1703421 45.1703421 26.343
321 1 0.0 45.1703421 31.9988421 39.5145
322 1 0.0 31.9988421 45.1703421 39.5145
323 1 0.0 31.9988421 31.9988421 26.343
324 1 0.0 45.1703421 33.8586579 26.343
325 1 0.0 45.1703421 47.0301579 39.5145
326 1 0.0 31.9988421 33.8586579 39.5145
327 1 0.0 31.9988421 47.0301579 26.343
328 1 0.0 33.8586579 45.1703421 26.343
329 1 0.0 33.8586579 31.9988421 39.5145
330 1 0.0 47.0301579 45.1703421 39.5145
331 1 0.0 47.0301579 31.9988421 26.343
332 1 0.0 26.343 33.8586579 33.8586579
333 1 0.0 26.343 47.0301579 47.0301579
334 1 0.0 39.5145 33.8586579 47.0301579
335 1 0.0 39.5145 47.0301579 33.8586579
336 1 0.0 26.343 45.1703421 45.1703421
337 1 0.0 26.343 31.9988421 31.9988421
338 1 0.0 39.5145 45.1703421 31.9988421
339 1 0.0 39.5145 31.9988421 45.1703421
340 1 0.0 26.343 45.1703421 33.8586579
341 1 0.0 26.343 31.9988421 47.0301579
342 1 0.0 39.5145 45.1703421 47.0301579
343 1 0.0 26.343 33.8586579 45.1703421
344 1 0.0 26.343 47.0301579 31.9988421
345 1 0.0 39.5145 47.0301579 45.1703421
346 1 0.0 33.8586579 26.343 33.8586579
347 1 0.0 33.8586579 39.5145 47.0301579
348 1 0.0 47.0301579 26.343 47.0301579
349 1 0.0 47.0301579 39.5145 33.8586579
350 1 0.0 45.1703421 26.343 45.1703421
351 1 0.0 45.1703421 39.5145 31.9988421
352 1 0.0 31.9988421 26.343 31.9988421
353 1 0.0 31.9988421 39.5145 45.1703421
354 1 0.0 33.8586579 39.5145 31.9988421
355 1 0.0 47.0301579 26.343 31.9988421
356 1 0.0 47.0301579 39.5145 45.1703421
357 1 0.0 45.1703421 26.343 33.8586579
358 1 0.0 45.1703421 39.5145 47.0301579
359 1 0.0 31.9988421 39.5145 33.8586579
360 2 0.0 19.177704 3.1558914 3.1558914
361 2 0.0 19.177704 16.3273914 16.3273914
362 2 0.0 20.336796 3.1558914 10.0156086
363 2 0.0 20.336796 16.3273914 23.1871086
364 2 0.0 7.165296 3.1558914 23.1871086
365 2 0.0 6.006204 10.0156086 3.1558914
366 2 0.0 6.006204 23.1871086 16.3273914
367 2 0.0 19.177704 10.0156086 16.3273914
368 2 0.0 20.336796 16.3273914 3.1558914
369 2 0.0 7.165296 16.3273914 16.3273914
370 2 0.0 6.006204 16.3273914 23.1871086
371 2 0.0 19.177704 16.3273914 10.0156086
372 2 0.0 20.336796 10.0156086 23.1871086
373 2 0.0 7.165296 10.0156086 10.0156086
374 2 0.0 7.165296 23.1871086 23.1871086
375 2 0.0 10.0156086 23.1871086 20.336796
376 2 0.0 10.0156086 10.0156086 7.165296
377 2 0.0 23.1871086 23.1871086 7.165296
378 2 0.0 16.3273914 23.1871086 6.006204
379 2 0.0 16.3273914 10.0156086 19.177704
380 2 0.0 16.3273914 3.1558914 20.336796
381 2 0.0 16.3273914 16.3273914 7.165296
382 2 0.0 10.0156086 3.1558914 6.006204
383 2 0.0 10.0156086 16.3273914 19.177704
384 2 0.0 23.1871086 16.3273914 6.006204
385 2 0.0 23.1871086 6.006204 16.3273914
386 2 0.0 23.1871086 19.177704 3.1558914
387 2 0.0 23.1871086 20.336796 10.0156086
388 2 0.0 23.1871086 7.165296 23.1871086
389 2 0.0 3.1558914 6.006204 10.0156086
390 2 0.0 3.1558914 19.177704 23.1871086
391 2 0.0 16.3273914 6.006204 23.1871086
392 2 0.0 3.1558914 20.336796 16.3273914
393 2 0.0 3.1558914 7.165296 3.1558914
394 2 0.0 16.3273914 7.165296 16.3273914
395 2 0.0 16.3273914 20.336796 3.1558914
396 2 0.0 10.0156086 6.006204 3.1558914
397 2 0.0 10.0156086 19.177704 16.3273914
398 2 0.0 10.0156086 20.336796 23.1871086
399 2 0.0 10.0156086 7.165296 10.0156086
400 2 0.0 16.3273914 19.177704 10.0156086
401 2 0.0 3.1558914 16.3273914 20.336796
402 2 0.0 3.1558914 3.1558914 7.165296
403 2 0.0 3.1558914 10.0156086 6.006204
404 2 0.0 3.1558914 23.1871086 19.177704
405 2 0.0 23.1871086 10.0156086 20.336796
406 2 0.0 23.1871086 3.1558914 19.177704
407 2 0.0 20.336796 3.1558914 16.3273914
408 2 0.0 7.165296 3.1558914 3.1558914
409 2 0.0 6.006204 3.1558914 10.0156086
410 2 0.0 19.177704 3.1558914 23.1871086
411 2 0.0 20.336796 23.1871086 10.0156086
412 2 0.0 19.177704 23.1871086 3.1558914
413 2 0.0 7.165296 16.3273914 10.0156086
414 2 0.0 6.006204 10.0156086 23.1871086
415 2 0.0 19.177704 10.0156086 10.0156086
416 2 0.0 20.336796 10.0156086 3.1558914
417 2 0.0 7.165296 10.0156086 16.3273914
418 2 0.0 6.006204 16.3273914 3.1558914
419 2 0.0 16.3273914 3.1558914 6.006204
420 2 0.0 10.0156086 3.1558914 20.336796
421 2 0.0 10.0156086 16.3273914 7.165296
422 2 0.0 10.0156086 23.1871086 6.006204
423 2 0.0 10.0156086 10.0156086 19.177704
424 2 0.0 16.3273914 10.0156086 7.165296
425 2 0.0 3.1558914 20.336796 10.0156086
426 2 0.0 3.1558914 7.165296 23.1871086
427 2 0.0 3.1558914 6.006204 16.3273914
428 2 0.0 3.1558914 19.177704 3.1558914
429 2 0.0 23.1871086 7.165296 3.1558914
430 2 0.0 23.1871086 6.006204 10.0156086
431 2 0.0 36.3586086 6.006204 23.1871086
432 2 0.0 36.3586086 19.177704 10.0156086
433 2 0.0 49.5301086 19.177704 23.1871086
434 2 0.0 42.6703914 20.336796 23.1871086
435 2 0.0 42.6703914 7.165296 10.0156086
436 2 0.0 42.6703914 6.006204 3.1558914
437 2 0.0 42.6703914 19.177704 16.3273914
438 2 0.0 36.3586086 20.336796 3.1558914
439 2 0.0 36.3586086 7.165296 16.3273914
440 2 0.0 49.5301086 20.336796 16.3273914
441 2 0.0 49.5301086 10.0156086 6.006204
442 2 0.0 49.5301086 23.1871086 19.177704
443 2 0.0 49.5301086 16.3273914 20.336796
444 2 0.0 49.5301086 3.1558914 7.165296
445 2 0.0 29.4988914 16.3273914 6.006204
446 2 0.0 29.4988914 3.1558914 19.177704
447 2 0.0 42.6703914 16.3273914 19.177704
448 2 0.0 29.4988914 10.0156086 20.336796
449 2 0.0 29.4988914 23.1871086 7.165296
450 2 0.0 42.6703914 23.1871086 20.336796
451 2 0.0 32.349204 23.1871086 10.0156086
452 2 0.0 45.520704 23.1871086 23.1871086
453 2 0.0 46.679796 23.1871086 16.3273914
454 2 0.0 33.508296 23.1871086 3.1558914
455 2 0.0 32.349204 3.1558914 16.3273914
456 2 0.0 45.520704 3.1558914 3.1558914
457 2 0.0 45.520704 16.3273914 16.3273914
458 2 0.0 46.679796 3.1558914 10.0156086
459 2 0.0 46.679796 16.3273914 23.1871086
460 2 0.0 33.508296 3.1558914 23.1871086
461 2 0.0 32.349204 10.0156086 3.1558914
462 2 0.0 32.349204 23.1871086 16.3273914
463 2 0.0 45.520704 10.0156086 16.3273914
464 2 0.0 46.679796 16.3273914 3.1558914
465 2 0.0 33.508296 16.3273914 16.3273914
466 2 0.0 32.349204 16.3273914 23.1871086
467 2 0.0 45.520704 16.3273914 10.0156086
468 2 0.0 46.679796 10.0156086 23.1871086
469 2 0.0 33.508296 10.0156086 10.0156086
470 2 0.0 33.508296 23.1871086 23.1871086
471 2 0.0 36.3586086 23.1871086 20.336796
472 2 0.0 36.3586086 10.0156086 7.165296
473 2 0.0 49.5301086 23.1871086 7.165296
474 2 0.0 42.6703914 23.1871086 6.006204
475 2 0.0 42.6703914 10.0156086 19.177704
476 2 0.0 42.6703914 3.1558914 20.336796
477 2 0.0 42.6703914 16.3273914 7.165296
478 2 0.0 36.3586086 3.1558914 6.006204
479 2 0.0 36.3586086 16.3273914 19.177704
480 2 0.0 49.5301086 16.3273914 6.006204
481 2 0.0 49.5301086 6.006204 16.3273914
482 2 0.0 49.5301086 19.177704 3.1558914
483 2 0.0 49.5301086 20.336796 10.0156086
484 2 0.0 49.5301086 7.165296 23.1871086
485 2 0.0 29.4988914 6.006204 10.0156086
486 2 0.0 29.4988914 19.177704 23.1871086
487 2 0.0 42.6703914 6.006204 23.1871086
488 2 0.0 29.4988914 20.336796 16.3273914
489 2 0.0 29.4988914 7.165296 3.1558914
490 2 0.0 42.6703914 7.165296 16.3273914
491 2 0.0 42.6703914 20.336796 3.1558914
492 2 0.0 36.3586086 6.006204 3.1558914
493 2 0.0 36.3586086 19.177704 16.3273914
494 2 0.0 36.3586086 20.336796 23.1871086
495 2 0.0 36.3586086 7.165296 10.0156086
496 2 0.0 42.6703914 19.177704 10.0156086
497 2 0.0 29.4988914 16.3273914 20.336796
498 2 0.0 29.4988914 3.1558914 7.165296
499 2 0.0 29.4988914 10.0156086 6.006204
500 2 0.0 29.4988914 23.1871086 19.177704
501 2 0.0 49.5301086 10.0156086 20.336796
502 2 0.0 49.5301086 3.1558914 19.177704
503 2 0.0 46.679796 3.1558914 16.3273914
504 2 0.0 33.508296 3.1558914 3.1558914
505 2 0.0 32.349204 3.1558914 10.0156086
506 2 0.0 45.520704 3.1558914 23.1871086
507 2 0.0 46.679796 23.1871086 10.0156086
508 2 0.0 45.520704 23.1871086 3.1558914
509 2 0.0 33.508296 16.3273914 10.0156086
510 2 0.0 32.349204 10.0156086 23.1871086
511 2 0.0 45.520704 10.0156086 10.0156086
512 2 0.0 46.679796 10.0156086 3.1558914
513 2 0.0 33.508296 10.0156086 16.3273914
514 2 0.0 32.349204 16.3273914 3.1558914
515 2 0.0 42.6703914 3.1558914 6.006204
516 2 0.0 36.3586086 3.1558914 20.336796
517 2 0.0 36.3586086 16.3273914 7.165296
518 2 0.0 36.3586086 23.1871086 6.006204
519 2 0.0 36.3586086 10.0156086 19.177704
520 2 0.0 42.6703914 10.0156086 7.165296
521 2 0.0 29.4988914 20.336796 10.0156086
522 2 0.0 29.4988914 7.165296 23.1871086
523 2 0.0 29.4988914 6.006204 16.3273914
524 2 0.0 29.4988914 19.177704 3.1558914
525 2 0.0 49.5301086 7.165296 3.1558914
526 2 0.0 49.5301086 6.006204 10.0156086
527 2 0.0 10.0156086 32.349204 23.1871086
528 2 0.0 10.0156086 45.520704 10.0156086
529 2 0.0 23.1871086 45.520704 23.1871086
530 2 0.0 16.3273914 46.679796 23.1871086
531 2 0.0 16.3273914 33.508296 10.0156086
532 2 0.0 16.3273914 32.349204 3.1558914
533 2 0.0 16.3273914 45.520704 16.3273914
534 2 0.0 10.0156086 46.679796 3.1558914
535 2 0.0 10.0156086 33.508296 16.3273914
536 2 0.0 23.1871086 46.679796 16.3273914
537 2 0.0 23.1871086 36.3586086 6.006204
538 2 0.0 23.1871086 49.5301086 19.177704
539 2 0.0 23.1871086 42.6703914 20.336796
540 2 0.0 23.1871086 29.4988914 7.165296
541 2 0.0 3.1558914 42.6703914 6.006204
542 2 0.0 3.1558914 29.4988914 19.177704
543 2 0.0 16.3273914 42.6703914 19.177704
544 2 0.0 3.1558914 36.3586086 20.336796
545 2 0.0 3.1558914 49.5301086 7.165296
546 2 0.0 16.3273914 49.5301086 20.336796
547 2 0.0 6.006204 49.5301086 10.0156086
548 2 0.0 19.177704 49.5301086 23.1871086
549 2 0.0 20.336796 49.5301086 16.3273914
550 2 0.0 7.165296 49.5301086 3.1558914
551 2 0.0 6.006204 29.4988914 16.3273914
552 2 0.0 19.177704 29.4988914 3.1558914
553 2 0.0 19.177704 42.6703914 16.3273914
554 2 0.0 20.336796 29.4988914 10.0156086
555 2 0.0 20.336796 42.6703914 23.1871086
556 2 0.0 7.165296 29.4988914 23.1871086
557 2 0.0 6.006204 36.3586086 3.1558914
558 2 0.0 6.006204 49.5301086 16.3273914
559 2 0.0 19.177704 36.3586086 16.3273914
560 2 0.0 20.336796 42.6703914 3.1558914
561 2 0.0 7.165296 42.6703914 16.3273914
562 2 0.0 6.006204 42.6703914 23.1871086
563 2 0.0 19.177704 42.6703914 10.0156086
564 2 0.0 20.336796 36.3586086 23.1871086
565 2 0.0 7.165296 36.3586086 10.0156086
566 2 0.0 7.165296 49.5301086 23.1871086
567 2 0.0 10.0156086 49.5301086 20.336796
568 2 0.0 10.0156086 36.3586086 7.165296
569 2 0.0 23.1871086 49.5301086 7.165296
570 2 0.0 16.3273914 49.5301086 6.006204
571 2 0.0 16.3273914 36.3586086 19.177704
572 2 0.0 16.3273914 29.4988914 20.336796
573 2 0.0 16.3273914 42.6703914 7.165296
574 2 0.0 10.0156086 29.4988914 6.006204
575 2 0.0 10.0156086 42.6703914 19.177704
576 2 0.0 23.1871086 42.6703914 6.006204
577 2 0.0 23.1871086 32.349204 16.3273914
578 2 0.0 23.1871086 45.520704 3.1558914
579 2 0.0 23.1871086 46.679796 10.0156086
580 2 0.0 23.1871086 33.508296 23.1871086
581 2 0.0 3.1558914 32.349204 10.0156086
582 2 0.0 3.1558914 45.520704 23.1871086
583 2 0.0 16.3273914 32.349204 23.1871086
584 2 0.0 3.1558914 46.679796 16.3273914
585 2 0.0 3.1558914 33.508296 3.1558914
586 2 0.0 16.3273914 33.508296 16.3273914
587 2 0.0 16.3273914 46.679796 3.1558914
588 2 0.0 10.0156086 32.349204 3.1558914
589 2 0.0 10.0156086 45.520704 16.3273914
590 2 0.0 10.0156086 46.679796 23.1871086
591 2 0.0 10.0156086 33.508296 10.0156086
592 2 0.0 16.3273914 45.520704 10.0156086
593 2 0.0 3.1558914 42.6703914 20.336796
594 2 0.0 3.1558914 29.4988914 7.165296
595 2 0.0 3.1558914 36.3586086 6.006204
596 2 0.0 3.1558914 49.5301086 19.177704
597 2 0.0 23.1871086 36.3586086 20.336796
598 2 0.0 23.1871086 29.4988914 19.177704
599 2 0.0 20.336796 29.4988914 16.3273914
600 2 0.0 7.165296 29.4988914 3.1558914
601 2 0.0 6.006204 29.4988914 10.0156086
602 2 0.0 19.177704 29.4988914 23.1871086
603 2 0.0 20.336796 49.5301086 10.0156086
604 2 0.0 19.177704 49.5301086 3.1558914
605 2 0.0 7.165296 42.6703914 10.0156086
606 2 0.0 6.006204 36.3586086 23.1871086
607 2 0.0 19.177704 36.3586086 10.0156086
608 2 0.0 20.336796 36.3586086 3.1558914
609 2 0.0 7.165296 36.3586086 16.3273914
610 2 0.0 6.006204 42.6703914 3.1558914
611 2 0.0 16.3273914 29.4988914 6.006204
612 2 0.0 10.0156086 29.4988914 20.336796
613 2 0.0 10.0156086 42.6703914 7.165296
614 2 0.0 10.0156086 49.5301086 6.006204
615 2 0.0 10.0156086 36.3586086 19.177704
616 2 0.0 16.3273914 36.3586086 7.165296
617 2 0.0 3.1558914 46.679796 10.0156086
618 2 0.0 3.1558914 33.508296 23.1871086
619 2 0.0 3.1558914 32.349204 16.3273914
620 2 0.0 3.1558914 45.520704 3.1558914
621 2 0.0 23.1871086 33.508296 3.1558914
622 2 0.0 23.1871086 32.349204 10.0156086
623 2 0.0 36.3586086 32.349204 23.1871086
624 2 0.0 36.3586086 45.520704 10.0156086
625 2 0.0 49.5301086 45.520704 23.1871086
626 2 0.0 42.6703914 46.679796 23.1871086
627 2 0.0 42.6703914 33.508296 10.0156086
628 2 0.0 42.6703914 32.349204 3.1558914
629 2 0.0 42.6703914 45.520704 16.3273914
630 2 0.0 36.3586086 46.679796 3.1558914
631 2 0.0 36.3586086 33.508296 16.3273914
632 2 0.0 49.5301086 46.679796 16.3273914
633 2 0.0 49.5301086 36.3586086 6.006204
634 2 0.0 49.5301086 49.5301086 19.177704
635 2 0.0 49.5301086 42.6703914 20.336796
636 2 0.0 49.5301086 29.4988914 7.165296
637 2 0.0 29.4988914 42.6703914 6.006204
638 2 0.0 29.4988914 29.4988914 19.177704
639 2 0.0 42.6703914 42.6703914 19.177704
640 2 0.0 29.4988914 36.3586086 20.336796
641 2 0.0 29.4988914 49.5301086 7.165296
642 2 0.0 42.6703914 49.5301086 20.336796
643 2 0.0 32.349204 49.5301086 10.0156086
644 2 0.0 45.520704 49.5301086 23.1871086
645 2 0.0 46.679796 49.5301086 16.3273914
646 2 0.0 33.508296 49.5301086 3.1558914
647 2 0.0 32.349204 29.4988914 16.3273914
648 2 0.0 45.520704 29.4988914 3.1558914
649 2 0.0 45.520704 42.6703914 16.3273914
650 2 0.0 46.679796 29.4988914 10.0156086
651 2 0.0 46.679796 42.6703914 23.1871086
652 2 0.0 33.508296 29.4988914 23.1871086
653 2 0.0 32.349204 36.3586086 3.1558914
654 2 0.0 32.349204 49.5301086 16.3273914
655 2 0.0 45.520704 36.3586086 16.3273914
656 2 0.0 46.679796 42.6703914 3.1558914
657 2 0.0 33.508296 42.6703914 16.3273914
658 2 0.0 32.349204 42.6703914 23.1871086
659 2 0.0 45.520704 42.6703914 10.0156086
660 2 0.0 46.679796 36.3586086 23.1871086
661 2 0.0 33.508296 36.3586086 10.0156086
662 2 0.0 33.508296 49.5301086 23.1871086
663 2 0.0 36.3586086 49.5301086 20.336796
664 2 0.0 36.3586086 36.3586086 7.165296
665 2 0.0 49.5301086 49.5301086 7.165296
666 2 0.0 42.6703914 49.5301086 6.006204
667 2 0.0 42.6703914 36.3586086 19.177704
668 2 0.0 42.6703914 29.4988914 20.336796
669 2 0.0 42.6703914 42.6703914 7.165296
670 2 0.0 36.3586086 29.4988914 6.006204
671 2 0.0 36.3586086 42.6703914 19.177704
672 2 0.0 49.5301086 42.6703914 6.006204
673 2 0.0 49.5301086 32.349204 16.3273914
674 2 0.0 49.5301086 45.520704 3.1558914
675 2 0.0 49.5301086 46.679796 10.0156086
676 2 0.0 49.5301086 33.508296 23.1871086
677 2 0.0 29.4988914 32.349204 10.0156086
678 2 0.0 29.4988914 45.520704 23.1871086
679 2 0.0 42.6703914 32.349204 23.1871086
680 2 0.0 29.4988914 46.679796 16.3273914
681 2 0.0 29.4988914 33.508296 3.1558914
682 2 0.0 42.6703914 33.508296 16.3273914
683 2 0.0 42.6703914 46.679796 3.1558914
684 2 0.0 36.3586086 32.349204 3.1558914
685 2 0.0 36.3586086 45.520704 16.3273914
686 2 0.0 36.3586086 46.679796 23.1871086
687 2 0.0 36.3586086 33.508296 10.0156086
688 2 0.0 42.6703914 45.520704 10.0156086
689 2 0.0 29.4988914 42.6703914 20.336796
690 2 0.0 29.4988914 29.4988914 7.165296
691 2 0.0 29.4988914 36.3586086 6.006204
692 2 0.0 29.4988914 49.5301086 19.177704
693 2 0.0 49.5301086 36.3586086 20.336796
694 2 0.0 49.5301086 29.4988914 19.177704
695 2 0.0 46.679796 29.4988914 16.3273914
696 2 0.0 33.508296 29.4988914 3.1558914
697 2 0.0 32.349204 29.4988914 10.0156086
698 2 0.0 45.520704 29.4988914 23.1871086
699 2 0.0 46.679796 49.5301086 10.0156086
700 2 0.0 45.520704 49.5301086 3.1558914
701 2 0.0 33.508296 42.6703914 10.0156086
702 2 0.0 32.349204 36.3586086 23.1871086
703 2 0.0 45.520704 36.3586086 10.0156086
704 2 0.0 46.679796 36.3586086 3.1558914
705 2 0.0 33.508296 36.3586086 16.3273914
706 2 0.0 32.349204 42.6703914 3.1558914
707 2 0.0 42.6703914 29.4988914 6.006204
708 2 0.0 36.3586086 29.4988914 20.336796
709 2 0.0 36.3586086 42.6703914 7.165296
710 2 0.0 36.3586086 49.5301086 6.006204
711 2 0.0 36.3586086 36.3586086 19.177704
712 2 0.0 42.6703914 36.3586086 7.165296
713 2 0.0 29.4988914 46.679796 10.0156086
714 2 0.0 29.4988914 33.508296 23.1871086
715 2 0.0 29.4988914 32.349204 16.3273914
716 2 0.0 29.4988914 45.520704 3.1558914
717 2 0.0 49.5301086 33.508296 3.1558914
718 2 0.0 49.5301086 32.349204 10.0156086
719 2 0.0 10.0156086 6.006204 49.5301086
720 2 0.0 10.0156086 19.177704 36.3586086
721 2 0.0 23.1871086 19.177704 49.5301086
722 2 0.0 16.3273914 20.336796 49.5301086
723 2 0.0 16.3273914 7.165296 36.3586086
724 2 0.0 16.3273914 6.006204 29.4988914
725 2 0.0 16.3273914 19.177704 42.6703914
726 2 0.0 10.0156086 20.336796 29.4988914
727 2 0.0 10.0156086 7.165296 42.6703914
728 2 0.0 23.1871086 20.336796 42.6703914
729 2 0.0 23.1871086 10.0156086 32.349204
730 2 0.0 23.1871086 23.1871086 45.520704
731 2 0.0 23.1871086 16.3273914 46.679796