# LAMMPS data file written by OVITO Basic 3.7.5
4962 atoms
4 atom types
0.0 52.686 xlo xhi
0.0 52.686 ylo yhi
0.0 52.686 zlo zhi
0 0 0 xy xz yz

Masses

1 63.546  # Cu
2 1.00794  # H
3 12.0107  # C
4 15.9994  # O

Atoms  # charge

1 1 0.0 7.5156579 7.5156579 0.0
2 1 0.0 7.5156579 20.6871579 13.1715
3 1 0.0 20.6871579 7.5156579 13.1715
4 1 0.0 20.6871579 20.6871579 0.0
5 1 0.0 18.8273421 18.8273421 0.0
6 1 0.0 18.8273421 5.6558421 13.1715
7 1 0.0 5.6558421 18.8273421 13.1715
8 1 0.0 5.6558421 5.6558421 0.0
9 1 0.0 18.8273421 7.5156579 0.0
10 1 0.0 18.8273421 20.6871579 13.1715
11 1 0.0 5.6558421 7.5156579 13.1715
12 1 0.0 5.6558421 20.6871579 0.0
13 1 0.0 7.5156579 18.8273421 0.0
14 1 0.0 7.5156579 5.6558421 13.1715
15 1 0.0 20.6871579 18.8273421 13.1715
16 1 0.0 20.6871579 5.6558421 0.0
17 1 0.0 0.0 7.5156579 7.5156579
18 1 0.0 0.0 20.6871579 20.6871579
19 1 0.0 13.1715 7.5156579 20.6871579
20 1 0.0 13.1715 20.6871579 7.5156579
21 1 0.0 0.0 18.8273421 18.8273421
22 1 0.0 0.0 5.6558421 5.6558421
23 1 0.0 13.1715 18.8273421 5.6558421
24 1 0.0 13.1715 5.6558421 18.8273421
25 1 0.0 0.0 18.8273421 7.5156579
26 1 0.0 0.0 5.6558421 20.6871579
27 1 0.0 13.1715 18.8273421 20.6871579
28 1 0.0 13.1715 5.6558421 7.5156579
29 1 0.0 0.0 7.5156579 18.8273421
30 1 0.0 0.0 20.6871579 5.6558421
31 1 0.0 13.1715 7.5156579 5.6558421
32 1 0.0 13.1715 20.6871579 18.8273421
33 1 0.0 7.5156579 0.0 7.5156579
34 1 0.0 7.5156579 13.1715 20.6871579
35 1 0.0 20.6871579 0.0 20.6871579
36 1 0.0 20.6871579 13.1715 7.5156579
37 1 0.0 18.8273421 0.0 18.8273421
38 1 0.0 18.8273421 13.1715 5.6558421
39 1 0.0 5.6558421 0.0 5.6558421
40 1 0.0 5.6558421 13.1715 18.8273421
41 1 0.0 7.5156579 0.0 18.8273421
42 1 0.0 7.5156579 13.1715 5.6558421
43 1 0.0 20.6871579 0.0 5.6558421
44 1 0.0 20.6871579 13.1715 18.8273421
45 1 0.0 18.8273421 0.0 7.5156579
46 1 0.0 18.8273421 13.1715 20.6871579
47 1 0.0 5.6558421 0.0 20.6871579
48 1 0.0 5.6558421 13.1715 7.5156579
49 1 0.0 33.8586579 7.5156579 0.0
50 1 0.0 33.8586579 20.6871579 13.1715
51 1 0.0 47.0301579 7.5156579 13.1715
52 1 0.0 47.0301579 20.6871579 0.0
53 1 0.0 45.1703421 18.8273421 0.0
54 1 0.0 45.1703421 5.6558421 13.1715
55 1 0.0 31.9988421 18.8273421 13.1715
56 1 0.0 31.9988421 5.6558421 0.0
57 1 0.0 45.1703421 7.5156579 0.0
58 1 0.0 45.1703421 20.6871579 13.1715
59 1 0.0 31.9988421 7.5156579 13.1715
60 1 0.0 31.9988421 20.6871579 0.0
61 1 0.0 33.8586579 18.8273421 0.0
62 1 0.0 33.8586579 5.6558421 13.1715
63 1 0.0 47.0301579 18.8273421 13.1715
64 1 0.0 47.0301579 5.6558421 0.0
65 1 0.0 26.343 7.5156579 7.5156579
66 1 0.0 26.343 20.6871579 20.6871579
67 1 0.0 39.5145 7.5156579 20.6871579
68 1 0.0 39.5145 20.6871579 7.5156579
69 1 0.0 26.343 18.8273421 18.8273421
70 1 0.0 26.343 5.6558421 5.6558421
71 1 0.0 39.5145 18.8273421 5.6558421
72 1 0.0 39.5145 5.6558421 18.8273421
73 1 0.0 26.343 18.8273421 7.5156579
74 1 0.0 26.343 5.6558421 20.6871579
75 1 0.0 39.5145 18.8273421 20.6871579
76 1 0.0 39.5145 5.6558421 7.5156579
77 1 0.0 26.343 7.5156579 18.8273421
78 1 0.0 26.343 20.6871579 5.6558421
79 1 0.0 39.5145 7.5156579 5.6558421
80 1 0.0 39.5145 20.6871579 18.8273421
81 1 0.0 33.8586579 0.0 7.5156579
82 1 0.0 33.8586579 13.1715 20.6871579
83 1 0.0 47.0301579 0.0 20.6871579
84 1 0.0 47.0301579 13.1715 7.5156579
85 1 0.0 45.1703421 0.0 18.8273421
86 1 0.0 45.1703421 13.1715 5.6558421
87 1 0.0 31.9988421 0.0 5.6558421
88 1 0.0 31.9988421 13.1715 18.8273421
89 1 0.0 33.8586579 0.0 18.8273421
90 1 0.0 33.8586579 13.1715 5.6558421
91 1 0.0 47.0301579 0.0 5.6558421
92 1 0.0 47.0301579 13.1715 18.8273421
93 1 0.0 45.1703421 0.0 7.5156579
94 1 0.0 45.1703421 13.1715 20.6871579
95 1 0.0 31.9988421 0.0 20.6871579
96 1 0.0 31.9988421 13.1715 7.5156579
97 1 0.0 7.5156579 33.8586579 0.0
98 1 0.0 7.5156579 47.0301579 13.1715
99 1 0.0 20.6871579 33.8586579 13.1715
100 1 0.0 20.6871579 47.0301579 0.0
101 1 0.0 18.8273421 45.1703421 0.0
102 1 0.0 18.8273421 31.9988421 13.1715
103 1 0.0 5.6558421 45.1703421 13.1715
104 1 0.0 5.6558421 31.9988421 0.0
105 1 0.0 18.8273421 33.8586579 0.0
106 1 0.0 18.8273421 47.0301579 13.1715
107 1 0.0 5.6558421 33.8586579 13.1715
108 1 0.0 5.6558421 47.0301579 0.0
109 1 0.0 7.5156579 45.1703421 0.0
110 1 0.0 7.5156579 31.9988421 13.1715
111 1 0.0 20.6871579 45.1703421 13.1715
112 1 0.0 20.6871579 31.9988421 0.0
113 1 0.0 0.0 33.8586579 7.5156579
114 1 0.0 0.0 47.0301579 20.6871579
115 1 0.0 13.1715 33.8586579 20.6871579
116 1 0.0 13.1715 47.0301579 7.5156579
117 1 0.0 0.0 45.1703421 18.8273421
118 1 0.0 0.0 31.9988421 5.6558421
119 1 0.0 13.1715 45.1703421 5.6558421
120 1 0.0 13.1715 31.9988421 18.8273421
121 1 0.0 0.0 45.1703421 7.5156579
122 1 0.0 0.0 31.9988421 20.6871579
123 1 0.0 13.1715 45.1703421 20.6871579
124 1 0.0 13.1715 31.9988421 7.5156579
125 1 0.0 0.0 33.8586579 18.8273421
126 1 0.0 0.0 47.0301579 5.6558421
127 1 0.0 13.1715 33.8586579 5.6558421
128 1 0.0 13.1715 47.0301579 18.8273421
129 1 0.0 7.5156579 26.343 7.5156579
130 1 0.0 7.5156579 39.5145 20.6871579
131 1 0.0 20.6871579 26.343 20.6871579
132 1 0.0 20.6871579 39.5145 7.5156579
133 1 0.0 18.8273421 26.343 18.8273421
134 1 0.0 18.8273421 39.5145 5.6558421
135 1 0.0 5.6558421 26.343 5.6558421
136 1 0.0 5.6558421 39.5145 18.8273421
137 1 0.0 7.5156579 26.343 18.8273421
138 1 0.0 7.5156579 39.5145 5.6558421
139 1 0.0 20.6871579 26.343 5.6558421
140 1 0.0 20.6871579 39.5145 18.8273421
141 1 0.0 18.8273421 26.343 7.5156579
142 1 0.0 18.8273421 39.5145 20.6871579
143 1 0.0 5.6558421 26.343 20.6871579
144 1 0.0 5.6558421 39.5145 7.5156579
145 1 0.0 33.8586579 33.8586579 0.0
146 1 0.0 33.8586579 47.0301579 13.1715
147 1 0.0 47.0301579 33.8586579 13.1715
148 1 0.0 47.0301579 47.0301579 0.0
149 1 0.0 45.1703421 45.1703421 0.0
150 1 0.0 45.1703421 31.9988421 13.1715
151 1 0.0 31.9988421 45.1703421 13.1715
152 1 0.0 31.9988421 31.9988421 0.0
153 1 0.0 45.1703421 33.8586579 0.0
154 1 0.0 45.1703421 47.0301579 13.1715
155 1 0.0 31.9988421 33.8586579 13.1715
156 1 0.0 31.9988421 47.0301579 0.0
157 1 0.0 33.8586579 45.1703421 0.0
158 1 0.0 33.8586579 31.9988421 13.1715
159 1 0.0 47.0301579 45.1703421 13.1715
160 1 0.0 47.0301579 31.9988421 0.0
161 1 0.0 26.343 33.8586579 7.5156579
162 1 0.0 26.343 47.0301579 20.6871579
163 1 0.0 39.5145 33.8586579 20.6871579
164 1 0.0 39.5145 47.0301579 7.5156579
165 1 0.0 26.343 45.1703421 18.8273421
166 1 0.0 26.343 31.9988421 5.6558421
167 1 0.0 39.5145 45.1703421 5.6558421
168 1 0.0 39.5145 31.9988421 18.8273421
169 1 0.0 26.343 45.1703421 7.5156579
170 1 0.0 26.343 31.9988421 20.6871579
171 1 0.0 39.5145 45.1703421 20.6871579
172 1 0.0 39.5145 31.9988421 7.5156579
173 1 0.0 26.343 33.8586579 18.8273421
174 1 0.0 26.343 47.0301579 5.6558421
175 1 0.0 39.5145 33.8586579 5.6558421
176 1 0.0 39.5145 47.0301579 18.8273421
177 1 0.0 33.8586579 26.343 7.5156579
178 1 0.0 33.8586579 39.5145 20.6871579
179 1 0.0 47.0301579 26.343 20.6871579
180 1 0.0 47.0301579 39.5145 7.5156579
181 1 0.0 45.1703421 26.343 18.8273421
182 1 0.0 45.1703421 39.5145 5.6558421
183 1 0.0 31.9988421 26.343 5.6558421
184 1 0.0 31.9988421 39.5145 18.8273421
185 1 0.0 33.8586579 26.343 18.8273421
186 1 0.0 33.8586579 39.5145 5.6558421
187 1 0.0 47.0301579 26.343 5.6558421
188 1 0.0 47.0301579 39.5145 18.8273421
189 1 0.0 45.1703421 26.343 7.5156579
190 1 0.0 45.1703421 39.5145 20.6871579
191 1 0.0 31.9988421 26.343 20.6871579
192 1 0.0 31.9988421 39.5145 7.5156579
193 1 0.0 7.5156579 7.5156579 26.343
194 1 0.0 7.5156579 20.6871579 39.5145
195 1 0.0 20.6871579 7.5156579 39.5145
196 1 0.0 20.6871579 20.6871579 26.343
197 1 0.0 18.8273421 18.8273421 26.343
198 1 0.0 18.8273421 5.6558421 39.5145
199 1 0.0 5.6558421 18.8273421 39.5145
200 1 0.0 5.6558421 5.6558421 26.343
201 1 0.0 18.8273421 7.5156579 26.343
202 1 0.0 18.8273421 20.6871579 39.5145
203 1 0.0 5.6558421 7.5156579 39.5145
204 1 0.0 5.6558421 20.6871579 26.343
205 1 0.0 7.5156579 18.8273421 26.343
206 1 0.0 7.5156579 5.6558421 39.5145
207 1 0.0 20.6871579 18.8273421 39.5145
208 1 0.0 20.6871579 5.6558421 26.343
209 1 0.0 0.0 7.5156579 33.8586579
210 1 0.0 0.0 20.6871579 47.0301579
211 1 0.0 13.1715 7.5156579 47.0301579
212 1 0.0 13.1715 20.6871579 33.8586579
213 1 0.0 0.0 18.8273421 45.1703421
214 1 0.0 0.0 5.6558421 31.9988421
215 1 0.0 13.1715 18.8273421 31.9988421
216 1 0.0 13.1715 5.6558421 45.1703421
217 1 0.0 0.0 18.8273421 33.8586579
218 1 0.0 0.0 5.6558421 47.0301579
219 1 0.0 13.1715 18.8273421 47.0301579
220 1 0.0 13.1715 5.6558421 33.8586579
221 1 0.0 0.0 7.5156579 45.1703421
222 1 0.0 0.0 20.6871579 31.9988421
223 1 0.0 13.1715 7.5156579 31.9988421
224 1 0.0 13.1715 20.6871579 45.1703421
225 1 0.0 7.5156579 0.0 33.8586579
226 1 0.0 7.5156579 13.1715 47.0301579
227 1 0.0 20.6871579 0.0 47.0301579
228 1 0.0 20.6871579 13.1715 33.8586579
229 1 0.0 18.8273421 0.0 45.1703421
230 1 0.0 18.8273421 13.1715 31.9988421
231 1 0.0 5.6558421 0.0 31.9988421
232 1 0.0 5.6558421 13.1715 45.1703421
233 1 0.0 7.5156579 0.0 45.1703421
234 1 0.0 7.5156579 13.1715 31.9988421
235 1 0.0 20.6871579 0.0 31.9988421
236 1 0.0 20.6871579 13.1715 45.1703421
237 1 0.0 18.8273421 0.0 33.8586579
238 1 0.0 18.8273421 13.1715 47.0301579
239 1 0.0 5.6558421 0.0 47.0301579
240 1 0.0 5.6558421 13.1715 33.8586579
241 1 0.0 33.8586579 7.5156579 26.343
242 1 0.0 33.8586579 20.6871579 39.5145
243 1 0.0 47.0301579 7.5156579 39.5145
244 1 0.0 47.0301579 20.6871579 26.343
245 1 0.0 45.1703421 18.8273421 26.343
246 1 0.0 45.1703421 5.6558421 39.5145
247 1 0.0 31.9988421 18.8273421 39.5145
248 1 0.0 31.9988421 5.6558421 26.343
249 1 0.0 45.1703421 7.5156579 26.343
250 1 0.0 45.1703421 20.6871579 39.5145
251 1 0.0 31.9988421 7.5156579 39.5145
252 1 0.0 31.9988421 20.6871579 26.343
253 1 0.0 33.8586579 18.8273421 26.343
254 1 0.0 33.8586579 5.6558421 39.5145
255 1 0.0 47.0301579 18.8273421 39.5145
256 1 0.0 47.0301579 5.6558421 26.343
257 1 0.0 26.343 7.5156579 33.8586579
258 1 0.0 26.343 20.6871579 47.0301579
259 1 0.0 39.5145 7.5156579 47.0301579
260 1 0.0 39.5145 20.6871579 33.8586579
261 1 0.0 26.343 18.8273421 45.1703421
262 1 0.0 26.343 5.6558421 31.9988421
263 1 0.0 39.5145 18.8273421 31.9988421
264 1 0.0 39.5145 5.6558421 45.1703421
265 1 0.0 26.343 18.8273421 33.8586579
266 1 0.0 26.343 5.6558421 47.0301579
267 1 0.0 39.5145 18.8273421 47.0301579
268 1 0.0 39.5145 5.6558421 33.8586579
269 1 0.0 26.343 7.5156579 45.1703421
270 1 0.0 26.343 20.6871579 31.9988421
271 1 0.0 39.5145 7.5156579 31.9988421
272 1 0.0 39.5145 20.6871579 45.1703421
273 1 0.0 33.8586579 0.0 33.8586579
274 1 0.0 33.8586579 13.1715 47.0301579
275 1 0.0 47.0301579 0.0 47.0301579
276 1 0.0 47.0301579 13.1715 33.8586579
277 1 0.0 45.1703421 0.0 45.1703421
278 1 0.0 45.1703421 13.1715 31.9988421
279 1 0.0 31.9988421 0.0 31.9988421
280 1 0.0 31.9988421 13.1715 45.1703421
281 1 0.0 33.8586579 0.0 45.1703421
282 1 0.0 33.8586579 13.1715 31.9988421
283 1 0.0 47.0301579 0.0 31.9988421
284 1 0.0 47.0301579 13.1715 45.1703421
285 1 0.0 45.1703421 0.0 33.8586579
286 1 0.0 45.1703421 13.1715 47.0301579
287 1 0.0 31.9988421 0.0 47.0301579
288 1 0.0 31.9988421 13.1715 33.8586579
289 1 0.0 7.5156579 33.8586579 26.343
290 1 0.0 7.5156579 47.0301579 39.5145
291 1 0.0 20.6871579 33.8586579 39.5145
292 1 0.0 20.6871579 47.0301579 26.343
293 1 0.0 18.8273421 45.1703421 26.343
294 1 0.0 18.8273421 31.9988421 39.5145
295 1 0.0 5.6558421 45.1703421 39.5145
296 1 0.0 5.6558421 31.9988421 26.343
297 1 0.0 18.8273421 33.8586579 26.343
298 1 0.0 18.8273421 47.0301579 39.5145
299 1 0.0 5.6558421 33.8586579 39.5145
300 1 0.0 5.6558421 47.0301579 26.343
301 1 0.0 7.5156579 45.1703421 26.343
302 1 0.0 7.5156579 31.9988421 39.5145
303 1 0.0 20.6871579 45.1703421 39.5145
304 1 0.0 20.6871579 31.9988421 26.343
305 1 0.0 0.0 33.8586579 33.8586579
306 1 0.0 0.0 47.0301579 47.0301579
307 1 0.0 13.1715 33.8586579 47.0301579
308 1 0.0 13.1715 47.0301579 33.8586579
309 1 0.0 0.0 45.1703421 45.1703421
310 1 0.0 0.0 31.9988421 31.9988421
311 1 0.0 13.1715 45.1703421 31.9988421
312 1 0.0 13.1715 31.9988421 45.1703421
313 1 0.0 0.0 45.1703421 33.8586579
314 1 0.0 0.0 31.9988421 47.0301579
315 1 0.0 13.1715 45.1703421 47.0301579
316 1 0.0 13.1715 31.9988421 33.8586579
317 1 0.0 0.0 33.8586579 45.1703421
318 1 0.0 0.0 47.0301579 31.9988421
319 1 0.0 13.1715 33.8586579 31.9988421
320 1 0.0 13.1715 47.0301579 45.1703421
321 1 0.0 7.5156579 26.343 33.8586579
322 1 0.0 7.5156579 39.5145 47.0301579
323 1 0.0 20.6871579 26.343 47.0301579
324 1 0.0 20.6871579 39.5145 33.8586579
325 1 0.0 18.8273421 26.343 45.1703421
326 1 0.0 18.8273421 39.5145 31.9988421
327 1 0.0 5.6558421 26.343 31.9988421
328 1 0.0 5.6558421 39.5145 45.1703421
329 1 0.0 7.5156579 26.343 45.1703421
330 1 0.0 7.5156579 39.5145 31.9988421
331 1 0.0 20.6871579 26.343 31.9988421
332 1 0.0 20.6871579 39.5145 45.1703421
333 1 0.0 18.8273421 26.343 33.8586579
334 1 0.0 18.8273421 39.5145 47.0301579
335 1 0.0 5.6558421 26.343 47.0301579
336 1 0.0 5.6558421 39.5145 33.8586579
337 1 0.0 33.8586579 33.8586579 26.343
338 1 0.0 33.8586579 47.0301579 39.5145
339 1 0.0 47.0301579 33.8586579 39.5145
340 1 0.0 47.0301579 47.0301579 26.343
341 1 0.0 45.1703421 45.1703421 26.343
342 1 0.0 45.1703421 31.9988421 39.5145
343 1 0.0 31.9988421 45.1703421 39.5145
344 1 0.0 31.9988421 31.9988421 26.343
345 1 0.0 45.1703421 33.8586579 26.343
346 1 0.0 45.1703421 47.0301579 39.5145
347 1 0.0 31.9988421 33.8586579 39.5145
348 1 0.0 31.9988421 47.0301579 26.343
349 1 0.0 33.8586579 45.1703421 26.343
350 1 0.0 33.8586579 31.9988421 39.5145
351 1 0.0 47.0301579 45.1703421 39.5145
352 1 0.0 47.0301579 31.9988421 26.343
353 1 0.0 26.343 33.8586579 33.8586579
354 1 0.0 26.343 47.0301579 47.0301579
355 1 0.0 39.5145 33.8586579 47.0301579
356 1 0.0 39.5145 47.0301579 33.8586579
357 1 0.0 26.343 45.1703421 45.1703421
358 1 0.0 26.343 31.9988421 31.9988421
359 1 0.0 39.5145 45.1703421 31.9988421
360 1 0.0 39.5145 31.9988421 45.1703421
361 1 0.0 26.343 45.1703421 33.8586579
362 1 0.0 26.343 31.9988421 47.0301579
363 1 0.0 39.5145 45.1703421 47.0301579
364 1 0.0 39.5145 31.9988421 33.8586579
365 1 0.0 26.343 33.8586579 45.1703421
366 1 0.0 26.343 47.0301579 31.9988421
367 1 0.0 39.5145 33.8586579 31.9988421
368 1 0.0 39.5145 47.0301579 45.1703421
369 1 0.0 33.8586579 26.343 33.8586579
370 1 0.0 33.8586579 39.5145 47.0301579
371 1 0.0 47.0301579 26.343 47.0301579
372 1 0.0 47.0301579 39.5145 33.8586579
373 1 0.0 45.1703421 26.343 45.1703421
374 1 0.0 45.1703421 39.5145 31.9988421
375 1 0.0 31.9988421 26.343 31.9988421
376 1 0.0 31.9988421 39.5145 45.1703421
377 1 0.0 33.8586579 26.343 45.1703421
378 1 0.0 33.8586579 39.5145 31.9988421
379 1 0.0 47.0301579 26.343 31.9988421
380 1 0.0 47.0301579 39.5145 45.1703421
381 1 0.0 45.1703421 26.343 33.8586579
382 1 0.0 45.1703421 39.5145 47.0301579
383 1 0.0 31.9988421 26.343 47.0301579
384 1 0.0 31.9988421 39.5145 33.8586579
385 2 0.0 10.0156086 6.006204 23.1871086
386 2 0.0 10.0156086 19.177704 10.0156086
387 2 0.0 23.1871086 19.177704 23.1871086
388 2 0.0 16.3273914 20.336796 23.1871086
389 2 0.0 16.3273914 7.165296 10.0156086
390 2 0.0 16.3273914 6.006204 3.1558914
391 2 0.0 16.3273914 19.177704 16.3273914
392 2 0.0 10.0156086 20.336796 3.1558914
393 2 0.0 10.0156086 7.165296 16.3273914
394 2 0.0 23.1871086 20.336796 16.3273914
395 2 0.0 23.1871086 10.0156086 6.006204
396 2 0.0 23.1871086 23.1871086 19.177704
397 2 0.0 23.1871086 16.3273914 20.336796
398 2 0.0 23.1871086 3.1558914 7.165296
399 2 0.0 3.1558914 16.3273914 6.006204
400 2 0.0 3.1558914 3.1558914 19.177704
401 2 0.0 16.3273914 16.3273914 19.177704
402 2 0.0 3.1558914 10.0156086 20.336796
403 2 0.0 3.1558914 23.1871086 7.165296
404 2 0.0 16.3273914 23.1871086 20.336796
405 2 0.0 6.006204 23.1871086 10.0156086
406 2 0.0 19.177704 23.1871086 23.1871086
407 2 0.0 20.336796 23.1871086 16.3273914
408 2 0.0 7.165296 23.1871086 3.1558914
409 2 0.0 6.006204 3.1558914 16.3273914
410 2 0.0 19.177704 3.1558914 3.1558914
411 2 0.0 19.177704 16.3273914 16.3273914
412 2 0.0 20.336796 3.1558914 10.0156086
413 2 0.0 20.336796 16.3273914 23.1871086
414 2 0.0 7.165296 3.1558914 23.1871086
415 2 0.0 6.006204 10.0156086 3.1558914
416 2 0.0 6.006204 23.1871086 16.3273914
417 2 0.0 19.177704 10.0156086 16.3273914
418 2 0.0 20.336796 16.3273914 3.1558914
419 2 0.0 7.165296 16.3273914 16.3273914
420 2 0.0 6.006204 16.3273914 23.1871086
421 2 0.0 19.177704 16.3273914 10.0156086
422 2 0.0 20.336796 10.0156086 23.1871086
423 2 0.0 7.165296 10.0156086 10.0156086
424 2 0.0 7.165296 23.1871086 23.1871086
425 2 0.0 10.0156086 23.1871086 20.336796
426 2 0.0 10.0156086 10.0156086 7.165296
427 2 0.0 23.1871086 23.1871086 7.165296
428 2 0.0 16.3273914 23.1871086 6.006204
429 2 0.0 16.3273914 10.0156086 19.177704
430 2 0.0 16.3273914 3.1558914 20.336796
431 2 0.0 16.3273914 16.3273914 7.165296
432 2 0.0 10.0156086 3.1558914 6.006204
433 2 0.0 10.0156086 16.3273914 19.177704
434 2 0.0 23.1871086 16.3273914 6.006204
435 2 0.0 23.1871086 6.006204 16.3273914
436 2 0.0 23.1871086 19.177704 3.1558914
437 2 0.0 23.1871086 20.336796 10.0156086
438 2 0.0 23.1871086 7.165296 23.1871086
439 2 0.0 3.1558914 6.006204 10.0156086
440 2 0.0 3.1558914 19.177704 23.1871086
441 2 0.0 16.3273914 6.006204 23.1871086
442 2 0.0 3.1558914 20.336796 16.3273914
443 2 0.0 3.1558914 7.165296 3.1558914
444 2 0.0 16.3273914 7.165296 16.3273914
445 2 0.0 16.3273914 20.336796 3.1558914
446 2 0.0 10.0156086 6.006204 3.1558914
447 2 0.0 10.0156086 19.177704 16.3273914
448 2 0.0 10.0156086 20.336796 23.1871086
449 2 0.0 10.0156086 7.165296 10.0156086
450 2 0.0 16.3273914 19.177704 10.0156086
451 2 0.0 3.1558914 16.3273914 20.336796
452 2 0.0 3.1558914 3.1558914 7.165296
453 2 0.0 3.1558914 10.0156086 6.006204
454 2 0.0 3.1558914 23.1871086 19.177704
455 2 0.0 23.1871086 10.0156086 20.336796
456 2 0.0 23.1871086 3.1558914 19.177704
457 2 0.0 20.336796 3.1558914 16.3273914
458 2 0.0 7.165296 3.1558914 3.1558914
459 2 0.0 6.006204 3.1558914 10.0156086
460 2 0.0 19.177704 3.1558914 23.1871086
461 2 0.0 20.336796 23.1871086 10.0156086
462 2 0.0 19.177704 23.1871086 3.1558914
463 2 0.0 7.165296 16.3273914 10.0156086
464 2 0.0 6.006204 10.0156086 23.1871086
465 2 0.0 19.177704 10.0156086 10.0156086
466 2 0.0 20.336796 10.0156086 3.1558914
467 2 0.0 7.165296 10.0156086 16.3273914
468 2 0.0 6.006204 16.3273914 3.1558914
469 2 0.0 16.3273914 3.1558914 6.006204
470 2 0.0 10.0156086 3.1558914 20.336796
471 2 0.0 10.0156086 16.3273914 7.165296
472 2 0.0 10.0156086 23.1871086 6.006204
473 2 0.0 10.0156086 10.0156086 19.177704
474 2 0.0 16.3273914 10.0156086 7.165296
475 2 0.0 3.1558914 20.336796 10.0156086
476 2 0.0 3.1558914 7.165296 23.1871086
477 2 0.0 3.1558914 6.006204 16.3273914
478 2 0.0 3.1558914 19.177704 3.1558914
479 2 0.0 23.1871086 7.165296 3.1558914
480 2 0.0 23.1871086 6.006204 10.0156086
481 2 0.0 36.3586086 6.006204 23.1871086
482 2 0.0 36.3586086 19.177704 10.0156086
483 2 0.0 49.5301086 19.177704 23.1871086
484 2 0.0 42.6703914 20.336796 23.1871086
485 2 0.0 42.6703914 7.165296 10.0156086
486 2 0.0 42.6703914 6.006204 3.1558914
487 2 0.0 42.6703914 19.177704 16.3273914
488 2 0.0 36.3586086 20.336796 3.1558914
489 2 0.0 36.3586086 7.165296 16.3273914
490 2 0.0 49.5301086 20.336796 16.3273914
491 2 0.0 49.5301086 10.0156086 6.006204
492 2 0.0 49.5301086 23.1871086 19.177704
493 2 0.0 49.5301086 16.3273914 20.336796
494 2 0.0 49.5301086 3.1558914 7.165296
495 2 0.0 29.4988914 16.3273914 6.006204
496 2 0.0 29.4988914 3.1558914 19.177704
497 2 0.0 42.6703914 16.3273914 19.177704
498 2 0.0 29.4988914 10.0156086 20.336796
499 2 0.0 29.4988914 23.1871086 7.165296
500 2 0.0 42.6703914 23.1871086 20.336796
501 2 0.0 32.349204 23.1871086 10.0156086
502 2 0.0 45.520704 23.1871086 23.1871086
503 2 0.0 46.679796 23.1871086 16.3273914
504 2 0.0 33.508296 23.1871086 3.1558914
505 2 0.0 32.349204 3.1558914 16.3273914
506 2 0.0 45.520704 3.1558914 3.1558914
507 2 0.0 45.520704 16.3273914 16.3273914
508 2 0.0 46.679796 3.1558914 10.0156086
509 2 0.0 46.679796 16.3273914 23.1871086
510 2 0.0 33.508296 3.1558914 23.1871086
511 2 0.0 32.349204 10.0156086 3.1558914
512 2 0.0 32.349204 23.1871086 16.3273914
513 2 0.0 45.520704 10.0156086 16.3273914
514 2 0.0 46.679796 16.3273914 3.1558914
515 2 0.0 33.508296 16.3273914 16.3273914
516 2 0.0 32.349204 16.3273914 23.1871086
517 2 0.0 45.520704 16.3273914 10.0156086
518 2 0.0 46.679796 10.0156086 23.1871086
519 2 0.0 33.508296 10.0156086 10.0156086
520 2 0.0 33.508296 23.1871086 23.1871086
521 2 0.0 36.3586086 23.1871086 20.336796
522 2 0.0 36.3586086 10.0156086 7.165296
523 2 0.0 49.5301086 23.1871086 7.165296
524 2 0.0 42.6703914 23.1871086 6.006204
525 2 0.0 42.6703914 10.0156086 19.177704
526 2 0.0 42.6703914 3.1558914 20.336796
527 2 0.0 42.6703914 16.3273914 7.165296
528 2 0.0 36.3586086 3.1558914 6.006204
529 2 0.0 36.3586086 16.3273914 19.177704
530 2 0.0 49.5301086 16.3273914 6.006204
531 2 0.0 49.5301086 6.006204 16.3273914
532 2 0.0 49.5301086 19.177704 3.1558914
533 2 0.0 49.5301086 20.336796 10.0156086
534 2 0.0 49.5301086 7.165296 23.1871086
535 2 0.0 29.4988914 6.006204 10.0156086
536 2 0.0 29.4988914 19.177704 23.1871086
537 2 0.0 42.6703914 6.006204 23.1871086
538 2 0.0 29.4988914 20.336796 16.3273914
539 2 0.0 29.4988914 7.165296 3.1558914
540 2 0.0 42.6703914 7.165296 16.3273914
541 2 0.0 42.6703914 20.336796 3.1558914
542 2 0.0 36.3586086 6.006204 3.1558914
543 2 0.0 36.3586086 19.177704 16.3273914
544 2 0.0 36.3586086 20.336796 23.1871086
545 2 0.0 36.3586086 7.165296 10.0156086
546 2 0.0 42.6703914 19.177704 10.0156086
547 2 0.0 29.4988914 16.3273914 20.336796
548 2 0.0 29.4988914 3.1558914 7.165296
549 2 0.0 29.4988914 10.0156086 6.006204
550 2 0.0 29.4988914 23.1871086 19.177704
551 2 0.0 49.5301086 10.0156086 20.336796
552 2 0.0 49.5301086 3.1558914 19.177704
553 2 0.0 46.679796 3.1558914 16.3273914
554 2 0.0 33.508296 3.1558914 3.1558914
555 2 0.0 32.349204 3.1558914 10.0156086
556 2 0.0 45.520704 3.1558914 23.1871086
557 2 0.0 46.679796 23.1871086 10.0156086
558 2 0.0 45.520704 23.1871086 3.1558914
559 2 0.0 33.508296 16.3273914 10.0156086
560 2 0.0 32.349204 10.0156086 23.1871086
561 2 0.0 45.520704 10.0156086 10.0156086
562 2 0.0 46.679796 10.0156086 3.1558914
563 2 0.0 33.508296 10.0156086 16.3273914
564 2 0.0 32.349204 16.3273914 3.1558914
565 2 0.0 42.6703914 3.1558914 6.006204
566 2 0.0 36.3586086 3.1558914 20.336796
567 2 0.0 36.3586086 16.3273914 7.165296
568 2 0.0 36.3586086 23.1871086 6.006204
569 2 0.0 36.3586086 10.0156086 19.177704
570 2 0.0 42.6703914 10.0156086 7.165296
571 2 0.0 29.4988914 20.336796 10.0156086
572 2 0.0 29.4988914 7.165296 23.1871086
573 2 0.0 29.4988914 6.006204 16.3273914
574 2 0.0 29.4988914 19.177704 3.1558914
575 2 0.0 49.5301086 7.165296 3.1558914
576 2 0.0 49.5301086 6.006204 10.0156086
577 2 0.0 10.0156086 32.349204 23.1871086
578 2 0.0 10.0156086 45.520704 10.0156086
579 2 0.0 23.1871086 45.520704 23.1871086
580 2 0.0 16.3273914 46.679796 23.1871086
581 2 0.0 16.3273914 33.508296 10.0156086
582 2 0.0 16.3273914 32.349204 3.1558914
583 2 0.0 16.3273914 45.520704 16.3273914
584 2 0.0 10.0156086 46.679796 3.1558914
585 2 0.0 10.0156086 33.508296 16.3273914
586 2 0.0 23.1871086 46.679796 16.3273914
587 2 0.0 23.1871086 36.3586086 6.006204
588 2 0.0 23.1871086 49.5301086 19.177704
589 2 0.0 23.1871086 42.6703914 20.336796
590 2 0.0 23.1871086 29.4988914 7.165296
591 2 0.0 3.1558914 42.6703914 6.006204
592 2 0.0 3.1558914 29.4988914 19.177704
593 2 0.0 16.3273914 42.6703914 19.177704
594 2 0.0 3.1558914 36.3586086 20.336796
595 2 0.0 3.1558914 49.5301086 7.165296
596 2 0.0 16.3273914 49.5301086 20.336796
597 2 0.0 6.006204 49.5301086 10.0156086
598 2 0.0 19.177704 49.5301086 23.1871086
599 2 0.0 20.336796 49.5301086 16.3273914
600 2 0.0 7.165296 49.5301086 3.1558914
601 2 0.0 6.006204 29.4988914 16.3273914
602 2 0.0 19.177704 29.4988914 3.1558914
603 2 0.0 19.177704 42.6703914 16.3273914
604 2 0.0 20.336796 29.4988914 10.0156086
605 2 0.0 20.336796 42.6703914 23.1871086
606 2 0.0 7.165296 29.4988914 23.1871086
607 2 0.0 6.006204 36.3586086 3.1558914
608 2 0.0 6.006204 49.5301086 16.3273914
609 2 0.0 19.177704 36.3586086 16.3273914
610 2 0.0 20.336796 42.6703914 3.1558914
611 2 0.0 7.165296 42.6703914 16.3273914
612 2 0.0 6.006204 42.6703914 23.1871086
613 2 0.0 19.177704 42.6703914 10.0156086
614 2 0.0 20.336796 36.3586086 23.1871086
615 2 0.0 7.165296 36.3586086 10.0156086
616 2 0.0 7.165296 49.5301086 23.1871086
617 2 0.0 10.0156086 49.5301086 20.336796
618 2 0.0 10.0156086 36.3586086 7.165296
619 2 0.0 23.1871086 49.5301086 7.165296
620 2 0.0 16.3273914 49.5301086 6.006204
621 2 0.0 16.3273914 36.3586086 19.177704
622 2 0.0 16.3273914 29.4988914 20.336796
623 2 0.0 16.3273914 42.6703914 7.165296
624 2 0.0 10.0156086 29.4988914 6.006204
625 2 0.0 10.0156086 42.6703914 19.177704
626 2 0.0 23.1871086 42.6703914 6.006204
627 2 0.0 23.1871086 32.349204 16.3273914
628 2 0.0 23.1871086 45.520704 3.1558914
629 2 0.0 23.1871086 46.679796 10.0156086
630 2 0.0 23.1871086 33.508296 23.1871086
631 2 0.0 3.1558914 32.349204 10.0156086
632 2 0.0 3.1558914 45.520704 23.1871086
633 2 0.0 16.3273914 32.349204 23.1871086
634 2 0.0 3.1558914 46.679796 16.3273914
635 2 0.0 3.1558914 33.508296 3.1558914
636 2 0.0 16.3273914 33.508296 16.3273914
637 2 0.0 16.3273914 46.679796 3.1558914
638 2 0.0 10.0156086 32.349204 3.1558914
639 2 0.0 10.0156086 45.520704 16.3273914
640 2 0.0 10.0156086 46.679796 23.1871086
641 2 0.0 10.0156086 33.508296 10.0156086
642 2 0.0 16.3273914 45.520704 10.0156086
643 2 0.0 3.1558914 42.6703914 20.336796
644 2 0.0 3.1558914 29.4988914 7.165296
645 2 0.0 3.1558914 36.3586086 6.006204
646 2 0.0 3.1558914 49.5301086 19.177704
647 2 0.0 23.1871086 36.3586086 20.336796
648 2 0.0 23.1871086 29.4988914 19.177704
649 2 0.0 20.336796 29.4988914 16.3273914
650 2 0.0 7.165296 29.4988914 3.1558914
651 2 0.0 6.006204 29.4988914 10.0156086
652 2 0.0 19.177704 29.4988914 23.1871086
653 2 0.0 20.336796 49.5301086 10.0156086
654 2 0.0 19.177704 49.5301086 3.1558914
655 2 0.0 7.165296 42.6703914 10.0156086
656 2 0.0 6.006204 36.3586086 23.1871086
657 2 0.0 19.177704 36.3586086 10.0156086
658 2 0.0 20.336796 36.3586086 3.1558914
659 2 0.0 7.165296 36.3586086 16.3273914
660 2 0.0 6.006204 42.6703914 3.1558914
661 2 0.0 16.3273914 29.4988914 6.006204
662 2 0.0 10.0156086 29.4988914 20.336796
663 2 0.0 10.0156086 42.6703914 7.165296
664 2 0.0 10.0156086 49.5301086 6.006204
665 2 0.0 10.0156086 36.3586086 19.177704
666 2 0.0 16.3273914 36.3586086 7.165296
667 2 0.0 3.1558914 46.679796 10.0156086
668 2 0.0 3.1558914 33.508296 23.1871086
669 2 0.0 3.1558914 32.349204 16.3273914
670 2 0.0 3.1558914 45.520704 3.1558914
671 2 0.0 23.1871086 33.508296 3.1558914
672 2 0.0 23.1871086 32.349204 10.0156086
673 2 0.0 36.3586086 32.349204 23.1871086
674 2 0.0 36.3586086 45.520704 10.0156086
675 2 0.0 49.5301086 45.520704 23.1871086
676 2 0.0 42.6703914 46.679796 23.1871086
677 2 0.0 42.6703914 33.508296 10.0156086
678 2 0.0 42.6703914 32.349204 3.1558914
679 2 0.0 42.6703914 45.520704 16.3273914
680 2 0.0 36.3586086 46.679796 3.1558914
681 2 0.0 36.3586086 33.508296 16.3273914
682 2 0.0 49.5301086 46.679796 16.3273914
683 2 0.0 49.5301086 36.3586086 6.006204
684 2 0.0 49.5301086 49.5301086 19.177704
685 2 0.0 49.5301086 42.6703914 20.336796
686 2 0.0 49.5301086 29.4988914 7.165296
687 2 0.0 29.4988914 42.6703914 6.006204
688 2 0.0 29.4988914 29.4988914 19.177704
689 2 0.0 42.6703914 42.6703914 19.177704
690 2 0.0 29.4988914 36.3586086 20.336796
691 2 0.0 29.4988914 49.5301086 7.165296
692 2 0.0 42.6703914 49.5301086 20.336796
693 2 0.0 32.349204 49.5301086 10.0156086
694 2 0.0 45.520704 49.5301086 23.1871086
695 2 0.0 46.679796 49.5301086 16.3273914
696 2 0.0 33.508296 49.5301086 3.1558914
697 2 0.0 32.349204 29.4988914 16.3273914
698 2 0.0 45.520704 29.4988914 3.1558914
699 2 0.0 45.520704 42.6703914 16.3273914
700 2 0.0 46.679796 29.4988914 10.0156086
701 2 0.0 46.679796 42.6703914 23.1871086
702 2 0.0 33.508296 29.4988914 23.1871086
703 2 0.0 32.349204 36.3586086 3.1558914
704 2 0.0 32.349204 49.5301086 16.3273914
705 2 0.0 45.520704 36.3586086 16.3273914
706 2 0.0 46.679796 42.6703914 3.1558914
707 2 0.0 33.508296 42.6703914 16.3273914
708 2 0.0 32.349204 42.6703914 23.1871086
709 2 0.0 45.520704 42.6703914 10.0156086
710 2 0.0 46.679796 36.3586086 23.1871086
711 2 0.0 33.508296 36.3586086 10.0156086
712 2 0.0 33.508296 49.5301086 23.1871086
713 2 0.0 36.3586086 49.5301086 20.336796
714 2 0.0 36.3586086 36.3586086 7.165296
715 2 0.0 49.5301086 49.5301086 7.165296
716 2 0.0 42.6703914 49.5301086 6.006204
717 2 0.0 42.6703914 36.3586086 19.177704
718 2 0.0 42.6703914 29.4988914 20.336796
719 2 0.0 42.6703914 42.6703914 7.165296
720 2 0.0 36.3586086 29.4988914 6.006204
721 2 0.0 36.3586086 42.6703914 19.177704
722 2 0.0 49.5301086 42.6703914 6.006204
723 2 0.0 49.5301086 32.349204 16.3273914
724 2 0.0 49.5301086 45.520704 3.1558914
725 2 0.0 49.5301086 46.679796 10.0156086
726 2 0.0 49.5301086 33.508296 23.1871086
727 2 0.0 29.4988914 32.349204 10.0156086
728 2 0.0 29.4988914 45.520704 23.1871086
729 2 0.0 42.6703914 32.349204 23.1871086
730 2 0.0 29.4988914 46.679796 16.3273914
731 2 0.0 29.4988914 33.508296 3.1558914
732 2 0.0 42.6703914 33.508296 16.3273914
733 2 0.0 42.6703914 46.679796 3.1558914