# LAMMPS data file written by OVITO Basic 3.7.5
4992 atoms
4 atom types
0.0 52.686 xlo xhi
0.0 52.686 ylo yhi
0.0 52.686 zlo zhi
0 0 0 xy xz yz

Masses

1 15.9994  # O
2 63.546  # Cu
3 12.0107  # C
4 1.00794  # H

Atoms  # charge

1 1 0.0 8.3401938 6.4039833 24.9678954
2 1 0.0 8.3401938 19.5754833 11.7963954
3 1 0.0 21.5116938 6.4039833 11.7963954
4 1 0.0 21.5116938 19.5754833 24.9678954
5 1 0.0 18.0028062 19.9390167 24.9678954
6 1 0.0 18.0028062 6.7675167 11.7963954
7 1 0.0 4.8313062 19.9390167 11.7963954
8 1 0.0 4.8313062 6.7675167 24.9678954
9 1 0.0 18.0028062 6.4039833 1.3751046
10 1 0.0 18.0028062 19.5754833 14.5466046
11 1 0.0 4.8313062 6.4039833 14.5466046
12 1 0.0 4.8313062 19.5754833 1.3751046
13 1 0.0 8.3401938 19.9390167 1.3751046
14 1 0.0 8.3401938 6.7675167 14.5466046
15 1 0.0 21.5116938 19.9390167 14.5466046
16 1 0.0 21.5116938 6.7675167 1.3751046
17 1 0.0 24.9678954 8.3401938 6.4039833
18 1 0.0 24.9678954 21.5116938 19.5754833
19 1 0.0 11.7963954 8.3401938 19.5754833
20 1 0.0 11.7963954 21.5116938 6.4039833
21 1 0.0 24.9678954 18.0028062 19.9390167
22 1 0.0 24.9678954 4.8313062 6.7675167
23 1 0.0 11.7963954 18.0028062 6.7675167
24 1 0.0 11.7963954 4.8313062 19.9390167
25 1 0.0 1.3751046 18.0028062 6.4039833
26 1 0.0 1.3751046 4.8313062 19.5754833
27 1 0.0 14.5466046 18.0028062 19.5754833
28 1 0.0 14.5466046 4.8313062 6.4039833
29 1 0.0 1.3751046 8.3401938 19.9390167
30 1 0.0 1.3751046 21.5116938 6.7675167
31 1 0.0 14.5466046 8.3401938 6.7675167
32 1 0.0 14.5466046 21.5116938 19.9390167
33 1 0.0 6.4039833 24.9678954 8.3401938
34 1 0.0 6.4039833 11.7963954 21.5116938
35 1 0.0 19.5754833 24.9678954 21.5116938
36 1 0.0 19.5754833 11.7963954 8.3401938
37 1 0.0 19.9390167 24.9678954 18.0028062
38 1 0.0 19.9390167 11.7963954 4.8313062
39 1 0.0 6.7675167 24.9678954 4.8313062
40 1 0.0 6.7675167 11.7963954 18.0028062
41 1 0.0 6.4039833 1.3751046 18.0028062
42 1 0.0 6.4039833 14.5466046 4.8313062
43 1 0.0 19.5754833 1.3751046 4.8313062
44 1 0.0 19.5754833 14.5466046 18.0028062
45 1 0.0 19.9390167 1.3751046 8.3401938
46 1 0.0 19.9390167 14.5466046 21.5116938
47 1 0.0 6.7675167 1.3751046 21.5116938
48 1 0.0 6.7675167 14.5466046 8.3401938
49 1 0.0 6.4039833 8.3401938 1.3751046
50 1 0.0 6.4039833 21.5116938 14.5466046
51 1 0.0 19.5754833 8.3401938 14.5466046
52 1 0.0 19.5754833 21.5116938 1.3751046
53 1 0.0 19.9390167 18.0028062 1.3751046
54 1 0.0 19.9390167 4.8313062 14.5466046
55 1 0.0 6.7675167 18.0028062 14.5466046
56 1 0.0 6.7675167 4.8313062 1.3751046
57 1 0.0 6.4039833 18.0028062 24.9678954
58 1 0.0 6.4039833 4.8313062 11.7963954
59 1 0.0 19.5754833 18.0028062 11.7963954
60 1 0.0 19.5754833 4.8313062 24.9678954
61 1 0.0 19.9390167 8.3401938 24.9678954
62 1 0.0 19.9390167 21.5116938 11.7963954
63 1 0.0 6.7675167 8.3401938 11.7963954
64 1 0.0 6.7675167 21.5116938 24.9678954
65 1 0.0 8.3401938 24.9678954 19.9390167
66 1 0.0 8.3401938 11.7963954 6.7675167
67 1 0.0 21.5116938 24.9678954 6.7675167
68 1 0.0 21.5116938 11.7963954 19.9390167
69 1 0.0 18.0028062 24.9678954 6.4039833
70 1 0.0 18.0028062 11.7963954 19.5754833
71 1 0.0 4.8313062 24.9678954 19.5754833
72 1 0.0 4.8313062 11.7963954 6.4039833
73 1 0.0 18.0028062 1.3751046 19.9390167
74 1 0.0 18.0028062 14.5466046 6.7675167
75 1 0.0 4.8313062 1.3751046 6.7675167
76 1 0.0 4.8313062 14.5466046 19.9390167
77 1 0.0 8.3401938 1.3751046 6.4039833
78 1 0.0 8.3401938 14.5466046 19.5754833
79 1 0.0 21.5116938 1.3751046 19.5754833
80 1 0.0 21.5116938 14.5466046 6.4039833
81 1 0.0 24.9678954 6.4039833 18.0028062
82 1 0.0 24.9678954 19.5754833 4.8313062
83 1 0.0 11.7963954 6.4039833 4.8313062
84 1 0.0 11.7963954 19.5754833 18.0028062
85 1 0.0 24.9678954 19.9390167 8.3401938
86 1 0.0 24.9678954 6.7675167 21.5116938
87 1 0.0 11.7963954 19.9390167 21.5116938
88 1 0.0 11.7963954 6.7675167 8.3401938
89 1 0.0 1.3751046 6.4039833 8.3401938
90 1 0.0 1.3751046 19.5754833 21.5116938
91 1 0.0 14.5466046 6.4039833 21.5116938
92 1 0.0 14.5466046 19.5754833 8.3401938
93 1 0.0 1.3751046 19.9390167 18.0028062
94 1 0.0 1.3751046 6.7675167 4.8313062
95 1 0.0 14.5466046 19.9390167 4.8313062
96 1 0.0 14.5466046 6.7675167 18.0028062
97 1 0.0 18.0028062 19.9390167 1.3751046
98 1 0.0 18.0028062 6.7675167 14.5466046
99 1 0.0 4.8313062 19.9390167 14.5466046
100 1 0.0 4.8313062 6.7675167 1.3751046
101 1 0.0 8.3401938 6.4039833 1.3751046
102 1 0.0 8.3401938 19.5754833 14.5466046
103 1 0.0 21.5116938 6.4039833 14.5466046
104 1 0.0 21.5116938 19.5754833 1.3751046
105 1 0.0 8.3401938 19.9390167 24.9678954
106 1 0.0 8.3401938 6.7675167 11.7963954
107 1 0.0 21.5116938 19.9390167 11.7963954
108 1 0.0 21.5116938 6.7675167 24.9678954
109 1 0.0 18.0028062 6.4039833 24.9678954
110 1 0.0 18.0028062 19.5754833 11.7963954
111 1 0.0 4.8313062 6.4039833 11.7963954
112 1 0.0 4.8313062 19.5754833 24.9678954
113 1 0.0 1.3751046 18.0028062 19.9390167
114 1 0.0 1.3751046 4.8313062 6.7675167
115 1 0.0 14.5466046 18.0028062 6.7675167
116 1 0.0 14.5466046 4.8313062 19.9390167
117 1 0.0 1.3751046 8.3401938 6.4039833
118 1 0.0 1.3751046 21.5116938 19.5754833
119 1 0.0 14.5466046 8.3401938 19.5754833
120 1 0.0 14.5466046 21.5116938 6.4039833
121 1 0.0 24.9678954 8.3401938 19.9390167
122 1 0.0 24.9678954 21.5116938 6.7675167
123 1 0.0 11.7963954 8.3401938 6.7675167
124 1 0.0 11.7963954 21.5116938 19.9390167
125 1 0.0 24.9678954 18.0028062 6.4039833
126 1 0.0 24.9678954 4.8313062 19.5754833
127 1 0.0 11.7963954 18.0028062 19.5754833
128 1 0.0 11.7963954 4.8313062 6.4039833
129 1 0.0 19.9390167 1.3751046 18.0028062
130 1 0.0 19.9390167 14.5466046 4.8313062
131 1 0.0 6.7675167 1.3751046 4.8313062
132 1 0.0 6.7675167 14.5466046 18.0028062
133 1 0.0 6.4039833 1.3751046 8.3401938
134 1 0.0 6.4039833 14.5466046 21.5116938
135 1 0.0 19.5754833 1.3751046 21.5116938
136 1 0.0 19.5754833 14.5466046 8.3401938
137 1 0.0 19.9390167 24.9678954 8.3401938
138 1 0.0 19.9390167 11.7963954 21.5116938
139 1 0.0 6.7675167 24.9678954 21.5116938
140 1 0.0 6.7675167 11.7963954 8.3401938
141 1 0.0 6.4039833 24.9678954 18.0028062
142 1 0.0 6.4039833 11.7963954 4.8313062
143 1 0.0 19.5754833 24.9678954 4.8313062
144 1 0.0 19.5754833 11.7963954 18.0028062
145 1 0.0 19.9390167 18.0028062 24.9678954
146 1 0.0 19.9390167 4.8313062 11.7963954
147 1 0.0 6.7675167 18.0028062 11.7963954
148 1 0.0 6.7675167 4.8313062 24.9678954
149 1 0.0 6.4039833 8.3401938 24.9678954
150 1 0.0 6.4039833 21.5116938 11.7963954
151 1 0.0 19.5754833 8.3401938 11.7963954
152 1 0.0 19.5754833 21.5116938 24.9678954
153 1 0.0 19.9390167 8.3401938 1.3751046
154 1 0.0 19.9390167 21.5116938 14.5466046
155 1 0.0 6.7675167 8.3401938 14.5466046
156 1 0.0 6.7675167 21.5116938 1.3751046
157 1 0.0 6.4039833 18.0028062 1.3751046
158 1 0.0 6.4039833 4.8313062 14.5466046
159 1 0.0 19.5754833 18.0028062 14.5466046
160 1 0.0 19.5754833 4.8313062 1.3751046
161 1 0.0 18.0028062 1.3751046 6.4039833
162 1 0.0 18.0028062 14.5466046 19.5754833
163 1 0.0 4.8313062 1.3751046 19.5754833
164 1 0.0 4.8313062 14.5466046 6.4039833
165 1 0.0 8.3401938 1.3751046 19.9390167
166 1 0.0 8.3401938 14.5466046 6.7675167
167 1 0.0 21.5116938 1.3751046 6.7675167
168 1 0.0 21.5116938 14.5466046 19.9390167
169 1 0.0 8.3401938 24.9678954 6.4039833
170 1 0.0 8.3401938 11.7963954 19.5754833
171 1 0.0 21.5116938 24.9678954 19.5754833
172 1 0.0 21.5116938 11.7963954 6.4039833
173 1 0.0 18.0028062 24.9678954 19.9390167
174 1 0.0 18.0028062 11.7963954 6.7675167
175 1 0.0 4.8313062 24.9678954 6.7675167
176 1 0.0 4.8313062 11.7963954 19.9390167
177 1 0.0 1.3751046 19.9390167 8.3401938
178 1 0.0 1.3751046 6.7675167 21.5116938
179 1 0.0 14.5466046 19.9390167 21.5116938
180 1 0.0 14.5466046 6.7675167 8.3401938
181 1 0.0 1.3751046 6.4039833 18.0028062
182 1 0.0 1.3751046 19.5754833 4.8313062
183 1 0.0 14.5466046 6.4039833 4.8313062
184 1 0.0 14.5466046 19.5754833 18.0028062
185 1 0.0 24.9678954 19.9390167 18.0028062
186 1 0.0 24.9678954 6.7675167 4.8313062
187 1 0.0 11.7963954 19.9390167 4.8313062
188 1 0.0 11.7963954 6.7675167 18.0028062
189 1 0.0 24.9678954 6.4039833 8.3401938
190 1 0.0 24.9678954 19.5754833 21.5116938
191 1 0.0 11.7963954 6.4039833 21.5116938
192 1 0.0 11.7963954 19.5754833 8.3401938
193 2 0.0 7.5156579 7.5156579 0.0
194 2 0.0 7.5156579 20.6871579 13.1715
195 2 0.0 20.6871579 7.5156579 13.1715
196 2 0.0 20.6871579 20.6871579 0.0
197 2 0.0 18.8273421 18.8273421 0.0
198 2 0.0 18.8273421 5.6558421 13.1715
199 2 0.0 5.6558421 18.8273421 13.1715
200 2 0.0 5.6558421 5.6558421 0.0
201 2 0.0 18.8273421 7.5156579 0.0
202 2 0.0 18.8273421 20.6871579 13.1715
203 2 0.0 5.6558421 7.5156579 13.1715
204 2 0.0 5.6558421 20.6871579 0.0
205 2 0.0 7.5156579 18.8273421 0.0
206 2 0.0 7.5156579 5.6558421 13.1715
207 2 0.0 20.6871579 18.8273421 13.1715
208 2 0.0 20.6871579 5.6558421 0.0
209 2 0.0 0.0 7.5156579 7.5156579
210 2 0.0 0.0 20.6871579 20.6871579
211 2 0.0 13.1715 7.5156579 20.6871579
212 2 0.0 13.1715 20.6871579 7.5156579
213 2 0.0 0.0 18.8273421 18.8273421
214 2 0.0 0.0 5.6558421 5.6558421
215 2 0.0 13.1715 18.8273421 5.6558421
216 2 0.0 13.1715 5.6558421 18.8273421
217 2 0.0 0.0 18.8273421 7.5156579
218 2 0.0 0.0 5.6558421 20.6871579
219 2 0.0 13.1715 18.8273421 20.6871579
220 2 0.0 13.1715 5.6558421 7.5156579
221 2 0.0 0.0 7.5156579 18.8273421
222 2 0.0 0.0 20.6871579 5.6558421
223 2 0.0 13.1715 7.5156579 5.6558421
224 2 0.0 13.1715 20.6871579 18.8273421
225 2 0.0 7.5156579 0.0 7.5156579
226 2 0.0 7.5156579 13.1715 20.6871579
227 2 0.0 20.6871579 0.0 20.6871579
228 2 0.0 20.6871579 13.1715 7.5156579
229 2 0.0 18.8273421 0.0 18.8273421
230 2 0.0 18.8273421 13.1715 5.6558421
231 2 0.0 5.6558421 0.0 5.6558421
232 2 0.0 5.6558421 13.1715 18.8273421
233 2 0.0 7.5156579 0.0 18.8273421
234 2 0.0 7.5156579 13.1715 5.6558421
235 2 0.0 20.6871579 0.0 5.6558421
236 2 0.0 20.6871579 13.1715 18.8273421
237 2 0.0 18.8273421 0.0 7.5156579
238 2 0.0 18.8273421 13.1715 20.6871579
239 2 0.0 5.6558421 0.0 20.6871579
240 2 0.0 5.6558421 13.1715 7.5156579
241 3 0.0 7.8186024 5.3528976 24.5332359
242 3 0.0 8.482446 4.689054 23.366241
243 3 0.0 7.8186024 18.5243976 11.3617359
244 3 0.0 8.482446 17.860554 10.194741
245 3 0.0 18.5243976 20.9901024 24.5332359
246 3 0.0 17.860554 21.653946 23.366241
247 3 0.0 18.5243976 7.8186024 11.3617359
248 3 0.0 17.860554 8.482446 10.194741
249 3 0.0 5.3528976 7.8186024 24.5332359
250 3 0.0 4.689054 8.482446 23.366241
251 3 0.0 18.5243976 5.3528976 1.8097641
252 3 0.0 17.860554 4.689054 2.976759
253 3 0.0 18.5243976 18.5243976 14.9812641
254 3 0.0 17.860554 17.860554 16.148259
255 3 0.0 5.3528976 5.3528976 14.9812641
256 3 0.0 4.689054 4.689054 16.148259
257 3 0.0 7.8186024 20.9901024 1.8097641
258 3 0.0 8.482446 21.653946 2.976759
259 3 0.0 7.8186024 7.8186024 14.9812641
260 3 0.0 8.482446 8.482446 16.148259
261 3 0.0 24.5332359 7.8186024 5.3528976
262 3 0.0 23.366241 8.482446 4.689054
263 3 0.0 11.3617359 7.8186024 18.5243976
264 3 0.0 10.194741 8.482446 17.860554
265 3 0.0 24.5332359 18.5243976 20.9901024
266 3 0.0 23.366241 17.860554 21.653946
267 3 0.0 24.5332359 5.3528976 7.8186024
268 3 0.0 23.366241 4.689054 8.482446
269 3 0.0 11.3617359 18.5243976 7.8186024
270 3 0.0 10.194741 17.860554 8.482446
271 3 0.0 1.8097641 18.5243976 5.3528976
272 3 0.0 2.976759 17.860554 4.689054
273 3 0.0 14.9812641 18.5243976 18.5243976
274 3 0.0 16.148259 17.860554 17.860554
275 3 0.0 14.9812641 5.3528976 5.3528976
276 3 0.0 16.148259 4.689054 4.689054
277 3 0.0 1.8097641 7.8186024 20.9901024
278 3 0.0 2.976759 8.482446 21.653946
279 3 0.0 14.9812641 7.8186024 7.8186024
280 3 0.0 16.148259 8.482446 8.482446
281 3 0.0 5.3528976 24.5332359 7.8186024
282 3 0.0 4.689054 23.366241 8.482446
283 3 0.0 5.3528976 11.3617359 20.9901024
284 3 0.0 4.689054 10.194741 21.653946
285 3 0.0 20.9901024 24.5332359 18.5243976
286 3 0.0 21.653946 23.366241 17.860554
287 3 0.0 20.9901024 11.3617359 5.3528976
288 3 0.0 21.653946 10.194741 4.689054
289 3 0.0 7.8186024 24.5332359 5.3528976
290 3 0.0 8.482446 23.366241 4.689054
291 3 0.0 5.3528976 1.8097641 18.5243976
292 3 0.0 4.689054 2.976759 17.860554
293 3 0.0 5.3528976 14.9812641 5.3528976
294 3 0.0 4.689054 16.148259 4.689054
295 3 0.0 20.9901024 1.8097641 7.8186024
296 3 0.0 21.653946 2.976759 8.482446
297 3 0.0 20.9901024 14.9812641 20.9901024
298 3 0.0 21.653946 16.148259 21.653946
299 3 0.0 7.8186024 14.9812641 7.8186024
300 3 0.0 8.482446 16.148259 8.482446
301 3 0.0 5.3528976 7.8186024 1.8097641
302 3 0.0 4.689054 8.482446 2.976759
303 3 0.0 5.3528976 20.9901024 14.9812641
304 3 0.0 4.689054 21.653946 16.148259
305 3 0.0 20.9901024 18.5243976 1.8097641
306 3 0.0 21.653946 17.860554 2.976759
307 3 0.0 20.9901024 5.3528976 14.9812641
308 3 0.0 21.653946 4.689054 16.148259
309 3 0.0 7.8186024 5.3528976 1.8097641
310 3 0.0 8.482446 4.689054 2.976759
311 3 0.0 5.3528976 18.5243976 24.5332359
312 3 0.0 4.689054 17.860554 23.366241
313 3 0.0 5.3528976 5.3528976 11.3617359
314 3 0.0 4.689054 4.689054 10.194741
315 3 0.0 20.9901024 7.8186024 24.5332359
316 3 0.0 21.653946 8.482446 23.366241
317 3 0.0 20.9901024 20.9901024 11.3617359
318 3 0.0 21.653946 21.653946 10.194741
319 3 0.0 7.8186024 7.8186024 11.3617359
320 3 0.0 8.482446 8.482446 10.194741
321 3 0.0 7.8186024 24.5332359 20.9901024
322 3 0.0 8.482446 23.366241 21.653946
323 3 0.0 7.8186024 11.3617359 7.8186024
324 3 0.0 8.482446 10.194741 8.482446
325 3 0.0 18.5243976 24.5332359 5.3528976
326 3 0.0 17.860554 23.366241 4.689054
327 3 0.0 18.5243976 11.3617359 18.5243976
328 3 0.0 17.860554 10.194741 17.860554
329 3 0.0 5.3528976 11.3617359 5.3528976
330 3 0.0 4.689054 10.194741 4.689054
331 3 0.0 18.5243976 1.8097641 20.9901024
332 3 0.0 17.860554 2.976759 21.653946
333 3 0.0 18.5243976 14.9812641 7.8186024
334 3 0.0 17.860554 16.148259 8.482446
335 3 0.0 5.3528976 1.8097641 7.8186024
336 3 0.0 4.689054 2.976759 8.482446
337 3 0.0 7.8186024 1.8097641 5.3528976
338 3 0.0 8.482446 2.976759 4.689054
339 3 0.0 7.8186024 14.9812641 18.5243976
340 3 0.0 8.482446 16.148259 17.860554
341 3 0.0 24.5332359 5.3528976 18.5243976
342 3 0.0 23.366241 4.689054 17.860554
343 3 0.0 11.3617359 5.3528976 5.3528976
344 3 0.0 10.194741 4.689054 4.689054
345 3 0.0 24.5332359 20.9901024 7.8186024
346 3 0.0 23.366241 21.653946 8.482446
347 3 0.0 11.3617359 20.9901024 20.9901024
348 3 0.0 10.194741 21.653946 21.653946
349 3 0.0 11.3617359 7.8186024 7.8186024
350 3 0.0 10.194741 8.482446 8.482446
351 3 0.0 1.8097641 5.3528976 7.8186024
352 3 0.0 2.976759 4.689054 8.482446
353 3 0.0 14.9812641 5.3528976 20.9901024
354 3 0.0 16.148259 4.689054 21.653946
355 3 0.0 1.8097641 20.9901024 18.5243976
356 3 0.0 2.976759 21.653946 17.860554
357 3 0.0 1.8097641 7.8186024 5.3528976
358 3 0.0 2.976759 8.482446 4.689054
359 3 0.0 14.9812641 20.9901024 5.3528976
360 3 0.0 16.148259 21.653946 4.689054
361 3 0.0 18.5243976 20.9901024 1.8097641
362 3 0.0 17.860554 21.653946 2.976759
363 3 0.0 18.5243976 7.8186024 14.9812641
364 3 0.0 17.860554 8.482446 16.148259
365 3 0.0 7.8186024 18.5243976 14.9812641
366 3 0.0 8.482446 17.860554 16.148259
367 3 0.0 7.8186024 20.9901024 24.5332359
368 3 0.0 8.482446 21.653946 23.366241
369 3 0.0 18.5243976 5.3528976 24.5332359
370 3 0.0 17.860554 4.689054 23.366241
371 3 0.0 18.5243976 18.5243976 11.3617359
372 3 0.0 17.860554 17.860554 10.194741
373 3 0.0 1.8097641 18.5243976 20.9901024
374 3 0.0 2.976759 17.860554 21.653946
375 3 0.0 14.9812641 18.5243976 7.8186024
376 3 0.0 16.148259 17.860554 8.482446
377 3 0.0 14.9812641 7.8186024 18.5243976
378 3 0.0 16.148259 8.482446 17.860554
379 3 0.0 24.5332359 7.8186024 20.9901024
380 3 0.0 23.366241 8.482446 21.653946
381 3 0.0 24.5332359 18.5243976 5.3528976
382 3 0.0 23.366241 17.860554 4.689054
383 3 0.0 11.3617359 18.5243976 18.5243976
384 3 0.0 10.194741 17.860554 17.860554
385 3 0.0 20.9901024 1.8097641 18.5243976
386 3 0.0 21.653946 2.976759 17.860554
387 3 0.0 20.9901024 14.9812641 5.3528976
388 3 0.0 21.653946 16.148259 4.689054
389 3 0.0 5.3528976 14.9812641 20.9901024
390 3 0.0 4.689054 16.148259 21.653946
391 3 0.0 20.9901024 24.5332359 7.8186024
392 3 0.0 21.653946 23.366241 8.482446
393 3 0.0 20.9901024 11.3617359 20.9901024
394 3 0.0 21.653946 10.194741 21.653946
395 3 0.0 5.3528976 24.5332359 18.5243976
396 3 0.0 4.689054 23.366241 17.860554
397 3 0.0 20.9901024 18.5243976 24.5332359
398 3 0.0 21.653946 17.860554 23.366241
399 3 0.0 20.9901024 5.3528976 11.3617359
400 3 0.0 21.653946 4.689054 10.194741
401 3 0.0 5.3528976 20.9901024 11.3617359
402 3 0.0 4.689054 21.653946 10.194741
403 3 0.0 20.9901024 7.8186024 1.8097641
404 3 0.0 21.653946 8.482446 2.976759
405 3 0.0 20.9901024 20.9901024 14.9812641
406 3 0.0 21.653946 21.653946 16.148259
407 3 0.0 5.3528976 18.5243976 1.8097641
408 3 0.0 4.689054 17.860554 2.976759
409 3 0.0 18.5243976 1.8097641 5.3528976
410 3 0.0 17.860554 2.976759 4.689054
411 3 0.0 18.5243976 14.9812641 18.5243976
412 3 0.0 17.860554 16.148259 17.860554
413 3 0.0 7.8186024 1.8097641 20.9901024
414 3 0.0 8.482446 2.976759 21.653946
415 3 0.0 7.8186024 11.3617359 18.5243976
416 3 0.0 8.482446 10.194741 17.860554
417 3 0.0 18.5243976 24.5332359 20.9901024
418 3 0.0 17.860554 23.366241 21.653946
419 3 0.0 18.5243976 11.3617359 7.8186024
420 3 0.0 17.860554 10.194741 8.482446
421 3 0.0 1.8097641 20.9901024 7.8186024
422 3 0.0 2.976759 21.653946 8.482446
423 3 0.0 14.9812641 20.9901024 20.9901024
424 3 0.0 16.148259 21.653946 21.653946
425 3 0.0 1.8097641 5.3528976 18.5243976
426 3 0.0 2.976759 4.689054 17.860554
427 3 0.0 24.5332359 20.9901024 18.5243976
428 3 0.0 23.366241 21.653946 17.860554
429 3 0.0 11.3617359 20.9901024 5.3528976
430 3 0.0 10.194741 21.653946 4.689054
431 3 0.0 11.3617359 5.3528976 20.9901024
432 3 0.0 10.194741 4.689054 21.653946
433 3 0.0 9.6283665 5.2527942 22.7998665
434 4 0.0 10.0156086 6.006204 23.1871086
435 3 0.0 9.6283665 18.4242942 9.6283665
436 4 0.0 10.0156086 19.177704 10.0156086
437 3 0.0 22.7998665 18.4242942 22.7998665
438 4 0.0 23.1871086 19.177704 23.1871086
439 3 0.0 16.7146335 21.0902058 22.7998665
440 4 0.0 16.3273914 20.336796 23.1871086
441 3 0.0 16.7146335 7.9187058 9.6283665
442 4 0.0 16.3273914 7.165296 10.0156086
443 3 0.0 16.7146335 5.2527942 3.5431335
444 4 0.0 16.3273914 6.006204 3.1558914
445 3 0.0 16.7146335 18.4242942 16.7146335
446 4 0.0 16.3273914 19.177704 16.3273914
447 3 0.0 9.6283665 21.0902058 3.5431335
448 4 0.0 10.0156086 20.336796 3.1558914
449 3 0.0 9.6283665 7.9187058 16.7146335
450 4 0.0 10.0156086 7.165296 16.3273914
451 3 0.0 22.7998665 21.0902058 16.7146335
452 4 0.0 23.1871086 20.336796 16.3273914
453 3 0.0 22.7998665 9.6283665 5.2527942
454 4 0.0 23.1871086 10.0156086 6.006204
455 3 0.0 22.7998665 22.7998665 18.4242942
456 4 0.0 23.1871086 23.1871086 19.177704
457 3 0.0 22.7998665 16.7146335 21.0902058
458 4 0.0 23.1871086 16.3273914 20.336796
459 3 0.0 22.7998665 3.5431335 7.9187058
460 4 0.0 23.1871086 3.1558914 7.165296
461 3 0.0 3.5431335 16.7146335 5.2527942
462 4 0.0 3.1558914 16.3273914 6.006204
463 3 0.0 3.5431335 3.5431335 18.4242942
464 4 0.0 3.1558914 3.1558914 19.177704
465 3 0.0 16.7146335 16.7146335 18.4242942
466 4 0.0 16.3273914 16.3273914 19.177704
467 3 0.0 3.5431335 9.6283665 21.0902058
468 4 0.0 3.1558914 10.0156086 20.336796
469 3 0.0 3.5431335 22.7998665 7.9187058
470 4 0.0 3.1558914 23.1871086 7.165296
471 3 0.0 16.7146335 22.7998665 21.0902058
472 4 0.0 16.3273914 23.1871086 20.336796
473 3 0.0 5.2527942 22.7998665 9.6283665
474 4 0.0 6.006204 23.1871086 10.0156086
475 3 0.0 18.4242942 22.7998665 22.7998665
476 4 0.0 19.177704 23.1871086 23.1871086
477 3 0.0 21.0902058 22.7998665 16.7146335
478 4 0.0 20.336796 23.1871086 16.3273914
479 3 0.0 7.9187058 22.7998665 3.5431335
480 4 0.0 7.165296 23.1871086 3.1558914
481 3 0.0 5.2527942 3.5431335 16.7146335
482 4 0.0 6.006204 3.1558914 16.3273914
483 3 0.0 18.4242942 3.5431335 3.5431335
484 4 0.0 19.177704 3.1558914 3.1558914
485 3 0.0 18.4242942 16.7146335 16.7146335
486 4 0.0 19.177704 16.3273914 16.3273914
487 3 0.0 21.0902058 3.5431335 9.6283665
488 4 0.0 20.336796 3.1558914 10.0156086
489 3 0.0 21.0902058 16.7146335 22.7998665
490 4 0.0 20.336796 16.3273914 23.1871086
491 3 0.0 7.9187058 3.5431335 22.7998665
492 4 0.0 7.165296 3.1558914 23.1871086
493 3 0.0 5.2527942 9.6283665 3.5431335
494 4 0.0 6.006204 10.0156086 3.1558914
495 3 0.0 5.2527942 22.7998665 16.7146335
496 4 0.0 6.006204 23.1871086 16.3273914
497 3 0.0 18.4242942 9.6283665 16.7146335
498 4 0.0 19.177704 10.0156086 16.3273914
499 3 0.0 21.0902058 16.7146335 3.5431335
500 4 0.0 20.336796 16.3273914 3.1558914
501 3 0.0 7.9187058 16.7146335 16.7146335
502 4 0.0 7.165296 16.3273914 16.3273914
503 3 0.0 5.2527942 16.7146335 22.7998665
504 4 0.0 6.006204 16.3273914 23.1871086
505 3 0.0 18.4242942 16.7146335 9.6283665
506 4 0.0 19.177704 16.3273914 10.0156086
507 3 0.0 21.0902058 9.6283665 22.7998665
508 4 0.0 20.336796 10.0156086 23.1871086
509 3 0.0 7.9187058 9.6283665 9.6283665
510 4 0.0 7.165296 10.0156086 10.0156086
511 3 0.0 7.9187058 22.7998665 22.7998665
512 4 0.0 7.165296 23.1871086 23.1871086
513 3 0.0 9.6283665 22.7998665 21.0902058
514 4 0.0 10.0156086 23.1871086 20.336796
515 3 0.0 9.6283665 9.6283665 7.9187058
516 4 0.0 10.0156086 10.0156086 7.165296
517 3 0.0 22.7998665 22.7998665 7.9187058
518 4 0.0 23.1871086 23.1871086 7.165296
519 3 0.0 16.7146335 22.7998665 5.2527942
520 4 0.0 16.3273914 23.1871086 6.006204
521 3 0.0 16.7146335 9.6283665 18.4242942
522 4 0.0 16.3273914 10.0156086 19.177704
523 3 0.0 16.7146335 3.5431335 21.0902058
524 4 0.0 16.3273914 3.1558914 20.336796
525 3 0.0 16.7146335 16.7146335 7.9187058
526 4 0.0 16.3273914 16.3273914 7.165296
527 3 0.0 9.6283665 3.5431335 5.2527942
528 4 0.0 10.0156086 3.1558914 6.006204
529 3 0.0 9.6283665 16.7146335 18.4242942
530 4 0.0 10.0156086 16.3273914 19.177704
531 3 0.0 22.7998665 16.7146335 5.2527942
532 4 0.0 23.1871086 16.3273914 6.006204
533 3 0.0 22.7998665 5.2527942 16.7146335
534 4 0.0 23.1871086 6.006204 16.3273914
535 3 0.0 22.7998665 18.4242942 3.5431335
536 4 0.0 23.1871086 19.177704 3.1558914
537 3 0.0 22.7998665 21.0902058 9.6283665
538 4 0.0 23.1871086 20.336796 10.0156086
539 3 0.0 22.7998665 7.9187058 22.7998665
540 4 0.0 23.1871086 7.165296 23.1871086
541 3 0.0 3.5431335 5.2527942 9.6283665
542 4 0.0 3.1558914 6.006204 10.0156086
543 3 0.0 3.5431335 18.4242942 22.7998665
544 4 0.0 3.1558914 19.177704 23.1871086
545 3 0.0 16.7146335 5.2527942 22.7998665
546 4 0.0 16.3273914 6.006204 23.1871086
547 3 0.0 3.5431335 21.0902058 16.7146335
548 4 0.0 3.1558914 20.336796 16.3273914
549 3 0.0 3.5431335 7.9187058 3.5431335
550 4 0.0 3.1558914 7.165296 3.1558914
551 3 0.0 16.7146335 7.9187058 16.7146335
552 4 0.0 16.3273914 7.165296 16.3273914
553 3 0.0 16.7146335 21.0902058 3.5431335
554 4 0.0 16.3273914 20.336796 3.1558914
555 3 0.0 9.6283665 5.2527942 3.5431335
556 4 0.0 10.0156086 6.006204 3.1558914
557 3 0.0 9.6283665 18.4242942 16.7146335
558 4 0.0 10.0156086 19.177704 16.3273914
559 3 0.0 9.6283665 21.0902058 22.7998665
560 4 0.0 10.0156086 20.336796 23.1871086
561 3 0.0 9.6283665 7.9187058 9.6283665
562 4 0.0 10.0156086 7.165296 10.0156086
563 3 0.0 16.7146335 18.4242942 9.6283665
564 4 0.0 16.3273914 19.177704 10.0156086
565 3 0.0 3.5431335 16.7146335 21.0902058
566 4 0.0 3.1558914 16.3273914 20.336796
567 3 0.0 3.5431335 3.5431335 7.9187058
568 4 0.0 3.1558914 3.1558914 7.165296
569 3 0.0 3.5431335 9.6283665 5.2527942
570 4 0.0 3.1558914 10.0156086 6.006204
571 3 0.0 3.5431335 22.7998665 18.4242942
572 4 0.0 3.1558914 23.1871086 19.177704
573 3 0.0 22.7998665 9.6283665 21.0902058
574 4 0.0 23.1871086 10.0156086 20.336796
575 3 0.0 22.7998665 3.5431335 18.4242942
576 4 0.0 23.1871086 3.1558914 19.177704
577 3 0.0 21.0902058 3.5431335 16.7146335
578 4 0.0 20.336796 3.1558914 16.3273914
579 3 0.0 7.9187058 3.5431335 3.5431335
580 4 0.0 7.165296 3.1558914 3.1558914
581 3 0.0 5.2527942 3.5431335 9.6283665
582 4 0.0 6.006204 3.1558914 10.0156086
583 3 0.0 18.4242942 3.5431335 22.7998665
584 4 0.0 19.177704 3.1558914 23.1871086
585 3 0.0 21.0902058 22.7998665 9.6283665
586 4 0.0 20.336796 23.1871086 10.0156086
587 3 0.0 18.4242942 22.7998665 3.5431335
588 4 0.0 19.177704 23.1871086 3.1558914
589 3 0.0 7.9187058 16.7146335 9.6283665
590 4 0.0 7.165296 16.3273914 10.0156086
591 3 0.0 5.2527942 9.6283665 22.7998665
592 4 0.0 6.006204 10.0156086 23.1871086
593 3 0.0 18.4242942 9.6283665 9.6283665
594 4 0.0 19.177704 10.0156086 10.0156086
595 3 0.0 21.0902058 9.6283665 3.5431335
596 4 0.0 20.336796 10.0156086 3.1558914
597 3 0.0 7.9187058 9.6283665 16.7146335
598 4 0.0 7.165296 10.0156086 16.3273914
599 3 0.0 5.2527942 16.7146335 3.5431335
600 4 0.0 6.006204 16.3273914 3.1558914
601 3 0.0 16.7146335 3.5431335 5.2527942
602 4 0.0 16.3273914 3.1558914 6.006204
603 3 0.0 9.6283665 3.5431335 21.0902058
604 4 0.0 10.0156086 3.1558914 20.336796
605 3 0.0 9.6283665 16.7146335 7.9187058
606 4 0.0 10.0156086 16.3273914 7.165296
607 3 0.0 9.6283665 22.7998665 5.2527942
608 4 0.0 10.0156086 23.1871086 6.006204
609 3 0.0 9.6283665 9.6283665 18.4242942
610 4 0.0 10.0156086 10.0156086 19.177704
611 3 0.0 16.7146335 9.6283665 7.9187058
612 4 0.0 16.3273914 10.0156086 7.165296
613 3 0.0 3.5431335 21.0902058 9.6283665
614 4 0.0 3.1558914 20.336796 10.0156086
615 3 0.0 3.5431335 7.9187058 22.7998665
616 4 0.0 3.1558914 7.165296 23.1871086
617 3 0.0 3.5431335 5.2527942 16.7146335
618 4 0.0 3.1558914 6.006204 16.3273914
619 3 0.0 3.5431335 18.4242942 3.5431335
620 4 0.0 3.1558914 19.177704 3.1558914
621 3 0.0 22.7998665 7.9187058 3.5431335
622 4 0.0 23.1871086 7.165296 3.1558914
623 3 0.0 22.7998665 5.2527942 9.6283665
624 4 0.0 23.1871086 6.006204 10.0156086
625 1 0.0 34.6831938 6.4039833 24.9678954
626 1 0.0 34.6831938 19.5754833 11.7963954
627 1 0.0 47.8546938 6.4039833 11.7963954
628 1 0.0 47.8546938 19.5754833 24.9678954
629 1 0.0 44.3458062 19.9390167 24.9678954
630 1 0.0 44.3458062 6.7675167 11.7963954
631 1 0.0 31.1743062 19.9390167 11.7963954
632 1 0.0 31.1743062 6.7675167 24.9678954
633 1 0.0 44.3458062 6.4039833 1.3751046
634 1 0.0 44.3458062 19.5754833 14.5466046
635 1 0.0 31.1743062 6.4039833 14.5466046
636 1 0.0 31.1743062 19.5754833 1.3751046
637 1 0.0 34.6831938 19.9390167 1.3751046
638 1 0.0 34.6831938 6.7675167 14.5466046
639 1 0.0 47.8546938 19.9390167 14.5466046
640 1 0.0 47.8546938 6.7675167 1.3751046
641 1 0.0 51.3108954 8.3401938 6.4039833
642 1 0.0 51.3108954 21.5116938 19.5754833
643 1 0.0 38.1393954 8.3401938 19.5754833
644 1 0.0 38.1393954 21.5116938 6.4039833
645 1 0.0 51.3108954 18.0028062 19.9390167
646 1 0.0 51.3108954 4.8313062 6.7675167
647 1 0.0 38.1393954 18.0028062 6.7675167
648 1 0.0 38.1393954 4.8313062 19.9390167
649 1 0.0 27.7181046 18.0028062 6.4039833
650 1 0.0 27.7181046 4.8313062 19.5754833
651 1 0.0 40.8896046 18.0028062 19.5754833
652 1 0.0 40.8896046 4.8313062 6.4039833
653 1 0.0 27.7181046 8.3401938 19.9390167
654 1 0.0 27.7181046 21.5116938 6.7675167
655 1 0.0 40.8896046 8.3401938 6.7675167
656 1 0.0 40.8896046 21.5116938 19.9390167
657 1 0.0 32.7469833 24.9678954 8.3401938
658 1 0.0 32.7469833 11.7963954 21.5116938
659 1 0.0 45.9184833 24.9678954 21.5116938
660 1 0.0 45.9184833 11.7963954 8.3401938
661 1 0.0 46.2820167 24.9678954 18.0028062
662 1 0.0 46.2820167 11.7963954 4.8313062
663 1 0.0 33.1105167 24.9678954 4.8313062
664 1 0.0 33.1105167 11.7963954 18.0028062
665 1 0.0 32.7469833 1.3751046 18.0028062
666 1 0.0 32.7469833 14.5466046 4.8313062
667 1 0.0 45.9184833 1.3751046 4.8313062
668 1 0.0 45.9184833 14.5466046 18.0028062
669 1 0.0 46.2820167 1.3751046 8.3401938
670 1 0.0 46.2820167 14.5466046 21.5116938
671 1 0.0 33.1105167 1.3751046 21.5116938
672 1 0.0 33.1105167 14.5466046 8.3401938
673 1 0.0 32.7469833 8.3401938 1.3751046
674 1 0.0 32.7469833 21.5116938 14.5466046
675 1 0.0 45.9184833 8.3401938 14.5466046
676 1 0.0 45.9184833 21.5116938 1.3751046
677 1 0.0 46.2820167 18.0028062 1.3751046
678 1 0.0 46.2820167 4.8313062 14.5466046
679 1 0.0 33.1105167 18.0028062 14.5466046
680 1 0.0 33.1105167 4.8313062 1.3751046
681 1 0.0 32.7469833 18.0028062 24.9678954
682 1 0.0 32.7469833 4.8313062 11.7963954
683 1 0.0 45.9184833 18.0028062 11.7963954
684 1 0.0 45.9184833 4.8313062 24.9678954
685 1 0.0 46.2820167 8.3401938 24.9678954
686 1 0.0 46.2820167 21.5116938 11.7963954
687 1 0.0 33.1105167 8.3401938 11.7963954
688 1 0.0 33.1105167 21.5116938 24.9678954
689 1 0.0 34.6831938 24.9678954 19.9390167
690 1 0.0 34.6831938 11.7963954 6.7675167
691 1 0.0 47.8546938 24.9678954 6.7675167
692 1 0.0 47.8546938 11.7963954 19.9390167
693 1 0.0 44.3458062 24.9678954 6.4039833
694 1 0.0 44.3458062 11.7963954 19.5754833
695 1 0.0 31.1743062 24.9678954 19.5754833
696 1 0.0 31.1743062 11.7963954 6.4039833
697 1 0.0 44.3458062 1.3751046 19.9390167
698 1 0.0 44.3458062 14.5466046 6.7675167
699 1 0.0 31.1743062 1.3751046 6.7675167
700 1 0.0 31.1743062 14.5466046 19.9390167
701 1 0.0 34.6831938 1.3751046 6.4039833
702 1 0.0 34.6831938 14.5466046 19.5754833
703 1 0.0 47.8546938 1.3751046 19.5754833
704 1 0.0 47.8546938 14.5466046 6.4039833
705 1 0.0 51.3108954 6.4039833 18.0028062
706 1 0.0 51.3108954 19.5754833 4.8313062
707 1 0.0 38.1393954 6.4039833 4.8313062
708 1 0.0 38.1393954 19.5754833 18.0028062
709 1 0.0 51.3108954 19.9390167 8.3401938
710 1 0.0 51.3108954 6.7675167 21.5116938
711 1 0.0 38.1393954 19.9390167 21.5116938